<?xml version="1.0"?>
<VTKFile type="UnstructuredGrid" version="0.1" byte_order="LittleEndian">
  <UnstructuredGrid>
    <Piece NumberOfPoints="961" NumberOfCells="900">
      <PointData Scalars="Temperature">
        <DataArray type="Float32" Name="Temperature" format="ascii">
          21.0001
          21.0044
          21.0089
          21.0137
          21.0179
          21.0209
          21.0228
          21.0247
          21.0275
          21.0316
          21.036
          21.0392
          21.0403
          21.0399
          21.0395
          21.0401
          21.0416
          21.0426
          21.0418
          21.0387
          21.0344
          21.0303
          21.0276
          21.0258
          21.0239
          21.0207
          21.0164
          21.0115
          21.0071
          21.0034
          21.0001
          21.0042
          21.1762
          21.3684
          21.5698
          21.7526
          21.8763
          21.9487
          22.0108
          22.1266
          22.3038
          22.5014
          22.6386
          22.6804
          22.6499
          22.6204
          22.6468
          22.7225
          22.7811
          22.7506
          22.6143
          22.4163
          22.2418
          22.1321
          22.0748
          22.0018
          21.8717
          21.6804
          21.475
          21.2889
          21.1373
          21.0033
          21.008
          21.3373
          21.7116
          22.1933
          22.5969
          22.8685
          22.94
          22.9943
          23.1766
          23.6291
          24.1074
          24.4533
          24.4947
          24.3365
          24.1919
          24.2595
          24.5025
          24.7189
          24.6887
          24.3356
          23.8499
          23.4046
          23.2405
          23.2023
          23.1302
          22.8402
          22.4138
          21.9157
          21.5528
          21.2623
          21.0063
          21.0113
          21.4745
          22.0077
          22.6972
          24.0539
          24.0541
          24.0541
          24.0541
          23.9881
          24.6631
          26.5675
          26.5677
          26.5677
          26.5676
          25.409
          25.5101
          26.9447
          26.9449
          26.9448
          26.9446
          24.9676
          24.3032
          24.4716
          24.4716
          24.4715
          24.4714
          23.0057
          22.2959
          21.7796
          21.3707
          21.0088
          21.0138
          21.5785
          22.2161
          23.038
          24.0691
          24.0691
          24.0692
          24.0692
          24.4888
          25.3214
          26.59
          26.5901
          26.5901
          26.5901
          26.168
          26.2929
          26.9684
          26.9684
          26.9684
          26.9683
          25.6776
          24.8581
          24.4882
          24.4882
          24.4882
          24.4881
          23.4075
          22.5692
          21.9566
          21.4577
          21.0109
          21.0156
          21.6492
          22.3464
          23.1587
          24.1142
          24.1142
          24.1143
          24.1143
          24.7118
          25.5516
          26.6569
          26.657
          26.657
          26.657
          26.4646
          26.5906
          27.0388
          27.0388
          27.0388
          27.0387
          25.9275
          25.1013
          24.538
          24.5379
          24.5379
          24.5378
          23.5583
          22.7471
          22.0839
          21.5236
          21.0126
          21.0168
          21.6977
          22.4274
          23.2473
          24.1894
          24.1895
          24.1895
          24.1896
          24.8503
          25.7022
          26.7684
          26.7685
          26.7685
          26.7685
          26.6472
          26.7751
          27.1561
          27.1561
          27.1561
          27.156
          26.0894
          25.2517
          24.6209
          24.6209
          24.6208
          24.6208
          23.67
          22.8637
          22.1765
          21.5735
          21.0138
          21.0178
          21.7366
          22.4974
          23.3385
          24.2951
          24.2952
          24.2952
          24.2953
          24.9872
          25.856
          26.9246
          26.9247
          26.9247
          26.9247
          26.8262
          26.9569
          27.3204
          27.3204
          27.3204
          27.3204
          26.2537
          25.3999
          24.7374
          24.7374
          24.7373
          24.7372
          23.7823
          22.9637
          22.252
          21.6143
          21.0148
          21.0187
          21.7754
          22.5714
          23.4445
          24.4317
          24.4317
          24.4318
          24.4318
          25.148
          26.0385
          27.1259
          27.126
          27.126
          27.126
          27.0359
          27.17
          27.5321
          27.5321
          27.5321
          27.532
          26.4483
          25.574
          24.8878
          24.8877
          24.8877
          24.8876
          23.9099
          23.0663
          22.3248
          21.6526
          21.0158
          21.0198
          21.8185
          22.6561
          23.5703
          24.5995
          24.5996
          24.5996
          24.5997
          25.3411
          26.2579
          27.3725
          27.3726
          27.3726
          27.3726
          27.2868
          27.4252
          27.7914
          27.7914
          27.7914
          27.7913
          26.682
          25.7827
          25.0726
          25.0725
          25.0725
          25.0724
          24.0591
          23.1804
          22.4027
          21.6926
          21.0167
          21.021
          21.8681
          22.7544
          23.7183
          24.7993
          24.7993
          24.7994
          24.7994
          25.5692
          26.5171
          27.6648
          27.6649
          27.6649
          27.6649
          27.5825
          27.7258
          28.0987
          28.0987
          28.0987
          28.0986
          26.9578
          26.0293
          25.2924
          25.2923
          25.2923
          25.2922
          24.2332
          23.3107
          22.4899
          21.7368
          21.0178
          21.0224
          21.9251
          22.8678
          23.8898
          25.0316
          25.0317
          25.0317
          25.0318
          25.8338
          26.8172
          28.0033
          28.0034
          28.0034
          28.0034
          27.9244
          28.0735
          28.4544
          28.4544
          28.4544
          28.4543
          27.2772
          26.315
          25.5478
          25.5478
          25.5477
          25.5477
          24.4341
          23.4598
          22.5889
          21.7867
          21.019
          21.024
          21.9901
          22.9972
          24.0858
          25.2973
          25.2974
          25.2975
          25.2975
          26.1358
          27.1591
          28.3885
          28.3886
          28.3886
          28.3886
          28.3134
          28.469
          28.859
          28.859
          28.859
          28.8589
          27.6409
          26.641
          25.8398
          25.8398
          25.8397
          25.8396
          24.6631
          23.6292
          22.701
          21.843
          21.0204
          21.0258
          22.0634
          23.1434
          24.3071
          25.5973
          25.5974
          25.5975
          25.5975
          26.476
          27.5437
          28.8209
          28.821
          28.821
          28.821
          28.7501
          28.9129
          29.313
          29.313
          29.3129
          29.3129
          28.0497
          27.008
          26.1691
          26.1691
          26.169
          26.169
          24.9214
          23.82
          22.8272
          21.9065
          21.022
          21.0278
          22.1455
          23.3068
          24.5545
          25.9325
          25.9326
          25.9326
          25.9327
          26.8553
          27.9715
          29.301
          29.3011
          29.3012
          29.3012
          29.2352
          29.406
          29.8169
          29.8169
          29.8169
          29.8168
          28.5043
          27.417
          26.5368
          26.5367
          26.5367
          26.5366
          25.2099
          24.0334
          22.9685
          21.9775
          21.0237
          21.03
          22.2366
          23.4882
          24.8289
          26.3038
          26.3039
          26.304
          26.3041
          27.2747
          28.4435
          29.8296
          29.8297
          29.8297
          29.8297
          29.7693
          29.9487
          30.3713
          30.3713
          30.3713
          30.3712
          29.0055
          27.8688
          26.9437
          26.9437
          26.9436
          26.9435
          25.5298
          24.2704
          23.1255
          22.0565
          21.0256
          21.0324
          22.3372
          23.6883
          25.1312
          26.7125
          26.7126
          26.7127
          26.7127
          27.735
          28.9605
          30.4072
          30.4073
          30.4073
          30.4073
          30.353
          30.5418
          30.9768
          30.9768
          30.9768
          30.9767
          29.5541
          28.3644
          27.3911
          27.391
          27.3909
          27.3909
          25.8825
          24.5325
          23.2997
          22.1443
          21.0277
          21.0351
          22.4478
          23.908
          25.4626
          27.1595
          27.1596
          27.1597
          27.1598
          28.2374
          29.5232
          31.0344
          31.0345
          31.0345
          31.0345
          30.9872
          31.1859
          31.634
          31.634
          31.634
          31.6339
          30.1509
          28.9048
          27.88
          27.8799
          27.8798
          27.8797
          26.2696
          24.8215
          23.4926
          22.2418
          21.0301
          21.038
          22.5694
          24.1488
          25.8244
          27.6462
          27.6463
          27.6464
          27.6465
          28.7829
          30.1326
          31.7119
          31.712
          31.7121
          31.7121
          31.6724
          31.8818
          32.3435
          32.3435
          32.3434
          32.3434
          30.7968
          29.491
          28.4115
          28.4115
          28.4114
          28.4112
          26.6936
          25.1407
          23.7072
          22.3509
          21.0327
          21.0415
          22.7033
          24.4129
          26.219
          28.1736
          28.1737
          28.1739
          28.174
          29.3726
          30.7895
          32.4402
          32.4404
          32.4405
          32.4406
          32.4095
          32.6303
          33.1058
          33.1058
          33.1057
          33.1056
          31.4926
          30.1242
          28.9871
          28.9869
          28.9868
          28.9866
          27.1582
          25.4952
          23.9486
          22.4746
          21.036
          21.0443
          22.8533
          24.7051
          26.6499
          28.743
          28.7432
          28.7435
          28.7437
          30.0075
          31.4948
          33.22
          33.2202
          33.2205
          33.2207
          33.1999
          33.4325
          33.9216
          33.9215
          33.9213
          33.9211
          32.2392
          30.8055
          29.6078
          29.6076
          29.6073
          29.6071
          27.6698
          25.8948
          24.2262
          22.6194
          21.0386
          21.0521
          23.0248
          25.0359
          27.1246
          29.3554
          29.3558
          29.3565
          29.3569
          30.6891
          32.2493
          34.0515
          34.052
          34.0529
          34.0533
          34.0456
          34.2908
          34.7915
          34.7913
          34.7906
          34.7903
          33.0378
          31.5366
          30.2751
          30.2747
          30.274
          30.2735
          28.2396
          26.3571
          24.5587
          22.7949
          21.0468
          21.0432
          23.2409
          25.4261
          27.6596
          30.0115
          30.0126
          30.0145
          30.0155
          31.4191
          33.054
          34.9344
          34.9358
          34.9385
          34.9399
          34.9522
          35.2101
          35.7167
          35.7158
          35.7139
          35.7129
          33.8902
          32.3201
          30.991
          30.9899
          30.9877
          30.9866
          28.8873
          26.9164
          24.9799
          23.0315
          21.0374
          21.1076
          23.5144
          25.9352
          28.2881
          30.7107
          30.7138
          30.7197
          30.7227
          32.2017
          33.9103
          35.8664
          35.8708
          35.8793
          35.8837
          35.9333
          36.204
          36.6995
          36.6966
          36.6906
          36.6875
          34.8003
          33.1622
          31.7588
          31.7554
          31.7487
          31.7453
          29.648
          27.6334
          25.5688
          23.3502
          21.1072
          20.8912
          24.0429
          26.6561
          29.0936
          31.4484
          31.4576
          31.4765
          31.4856
          33.0484
          34.822
          36.8395
          36.8529
          36.8803
          36.8936
          37.026
          37.308
          37.7463
          37.737
          37.7179
          37.7085
          35.7786
          34.0804
          32.5863
          32.576
          32.5547
          32.5443
          30.5711
          28.6312
          26.4424
          23.9702
          20.8758
          21.8322
          24.6768
          27.9861
          30.1929
          32.2053
          32.2369
          32.2942
          32.3258
          33.9958
          35.8049
          37.8242
          37.8703
          37.954
          38
          38.3278
          38.6159
          38.8781
          38.846
          38.7877
          38.7555
          36.8578
          35.1255
          33.4977
          33.462
          33.3973
          33.3616
          31.7067
          30.0699
          28.0412
          24.7336
          21.8899
          18.2161
          27.8375
          30.2688
          31.6804
          32.9347
          33.0096
          33.2175
          33.2923
          35.1948
          36.8907
          38.7501
          38.8607
          39.1634
          39.274
          40.1002
          40.3688
          40.1442
          40.0675
          39.8563
          39.7795
          38.1123
          36.4811
          34.5484
          34.4637
          34.2288
          34.1441
          33.0803
          32.0755
          30.725
          28.2398
          18.0028
          33.3297
          33.3947
          33.4882
          33.6031
          33.5767
          33.6775
          34.0856
          34.9695
          36.9244
          38.2689
          39.2982
          39.7905
          40.3986
          41.3233
          42.8285
          43.0323
          41.9993
          41.3083
          40.8874
          40.5861
          39.8053
          38.4753
          36.38
          35.4087
          34.9461
          34.807
          34.7723
          34.5955
          34.4438
          34.3339
          34.2622
          33.348
          33.4017
          33.5004
          33.6312
          33.827
          34.1626
          34.7605
          35.7502
          37.0122
          38.3964
          39.6367
          40.7181
          41.6618
          42.5615
          43.2276
          43.4309
          43.1413
          42.5858
          41.9526
          41.131
          40.0226
          38.6205
          37.2486
          36.1493
          35.4675
          35.0621
          34.8018
          34.6072
          34.4486
          34.3389
          34.2803
          33.3709
          33.4164
          33.5228
          33.7022
          33.9863
          34.4329
          35.1103
          36.052
          37.2454
          38.6511
          40.2958
          41.8382
          42.9889
          43.8405
          44.3891
          44.5813
          44.415
          43.9453
          43.2049
          42.14
          40.6169
          38.9731
          37.6085
          36.5387
          35.7606
          35.2316
          34.8752
          34.629
          34.4579
          34.3494
          34.302
          33.387
          33.4231
          33.5348
          33.7302
          34.0419
          34.5195
          35.2127
          36.1502
          37.3331
          38.7785
          40.6723
          42.4843
          43.7039
          44.56
          45.089
          45.2807
          45.1363
          44.6779
          43.9081
          42.7582
          40.9847
          39.1182
          37.7309
          36.6545
          35.8552
          35.2911
          34.9046
          34.6406
          34.4625
          34.354
          34.3178
        </DataArray>
      </PointData>
      <CellData>
      </CellData>
      <Points>
        <DataArray type="Float32" NumberOfComponents="3" format="ascii">
          0.1 0.005 0.0
          0.0966667 0.005 0.0
          0.0933333 0.005 0.0
          0.09 0.005 0.0
          0.0866667 0.005 0.0
          0.0833333 0.005 0.0
          0.08 0.005 0.0
          0.0766667 0.005 0.0
          0.0733333 0.005 0.0
          0.07 0.005 0.0
          0.0666667 0.005 0.0
          0.0633333 0.005 0.0
          0.06 0.005 0.0
          0.0566667 0.005 0.0
          0.0533333 0.005 0.0
          0.05 0.005 0.0
          0.0466667 0.005 0.0
          0.0433333 0.005 0.0
          0.04 0.005 0.0
          0.0366667 0.005 0.0
          0.0333333 0.005 0.0
          0.03 0.005 0.0
          0.0266667 0.005 0.0
          0.0233333 0.005 0.0
          0.02 0.005 0.0
          0.0166667 0.005 0.0
          0.0133333 0.005 0.0
          0.01 0.005 0.0
          0.00666667 0.005 0.0
          0.00333333 0.005 0.0
          0 0.005 0.0
          0.1 0.00166667 0.0
          0.0966667 0.00166667 0.0
          0.0933333 0.00166667 0.0
          0.09 0.00166667 0.0
          0.0866667 0.00166667 0.0
          0.0833333 0.00166667 0.0
          0.08 0.00166667 0.0
          0.0766667 0.00166667 0.0
          0.0733333 0.00166667 0.0
          0.07 0.00166667 0.0
          0.0666667 0.00166667 0.0
          0.0633333 0.00166667 0.0
          0.06 0.00166667 0.0
          0.0566667 0.00166667 0.0
          0.0533333 0.00166667 0.0
          0.05 0.00166667 0.0
          0.0466667 0.00166667 0.0
          0.0433333 0.00166667 0.0
          0.04 0.00166667 0.0
          0.0366667 0.00166667 0.0
          0.0333333 0.00166667 0.0
          0.03 0.00166667 0.0
          0.0266667 0.00166667 0.0
          0.0233333 0.00166667 0.0
          0.02 0.00166667 0.0
          0.0166667 0.00166667 0.0
          0.0133333 0.00166667 0.0
          0.01 0.00166667 0.0
          0.00666667 0.00166667 0.0
          0.00333333 0.00166667 0.0
          0 0.00166667 0.0
          0.1 -0.00166667 0.0
          0.0966667 -0.00166667 0.0
          0.0933333 -0.00166667 0.0
          0.09 -0.00166667 0.0
          0.0866667 -0.00166667 0.0
          0.0833333 -0.00166667 0.0
          0.08 -0.00166667 0.0
          0.0766667 -0.00166667 0.0
          0.0733333 -0.00166667 0.0
          0.07 -0.00166667 0.0
          0.0666667 -0.00166667 0.0
          0.0633333 -0.00166667 0.0
          0.06 -0.00166667 0.0
          0.0566667 -0.00166667 0.0
          0.0533333 -0.00166667 0.0
          0.05 -0.00166667 0.0
          0.0466667 -0.00166667 0.0
          0.0433333 -0.00166667 0.0
          0.04 -0.00166667 0.0
          0.0366667 -0.00166667 0.0
          0.0333333 -0.00166667 0.0
          0.03 -0.00166667 0.0
          0.0266667 -0.00166667 0.0
          0.0233333 -0.00166667 0.0
          0.02 -0.00166667 0.0
          0.0166667 -0.00166667 0.0
          0.0133333 -0.00166667 0.0
          0.01 -0.00166667 0.0
          0.00666667 -0.00166667 0.0
          0.00333333 -0.00166667 0.0
          0 -0.00166667 0.0
          0.1 -0.005 0.0
          0.0966667 -0.005 0.0
          0.0933333 -0.005 0.0
          0.09 -0.005 0.0
          0.0866667 -0.005 0.0
          0.0833333 -0.005 0.0
          0.08 -0.005 0.0
          0.0766667 -0.005 0.0
          0.0733333 -0.005 0.0
          0.07 -0.005 0.0
          0.0666667 -0.005 0.0
          0.0633333 -0.005 0.0
          0.06 -0.005 0.0
          0.0566667 -0.005 0.0
          0.0533333 -0.005 0.0
          0.05 -0.005 0.0
          0.0466667 -0.005 0.0
          0.0433333 -0.005 0.0
          0.04 -0.005 0.0
          0.0366667 -0.005 0.0
          0.0333333 -0.005 0.0
          0.03 -0.005 0.0
          0.0266667 -0.005 0.0
          0.0233333 -0.005 0.0
          0.02 -0.005 0.0
          0.0166667 -0.005 0.0
          0.0133333 -0.005 0.0
          0.01 -0.005 0.0
          0.00666667 -0.005 0.0
          0.00333333 -0.005 0.0
          0 -0.005 0.0
          0.1 -0.00833333 0.0
          0.0966667 -0.00833333 0.0
          0.0933333 -0.00833333 0.0
          0.09 -0.00833333 0.0
          0.0866667 -0.00833333 0.0
          0.0833333 -0.00833333 0.0
          0.08 -0.00833333 0.0
          0.0766667 -0.00833333 0.0
          0.0733333 -0.00833333 0.0
          0.07 -0.00833333 0.0
          0.0666667 -0.00833333 0.0
          0.0633333 -0.00833333 0.0
          0.06 -0.00833333 0.0
          0.0566667 -0.00833333 0.0
          0.0533333 -0.00833333 0.0
          0.05 -0.00833333 0.0
          0.0466667 -0.00833333 0.0
          0.0433333 -0.00833333 0.0
          0.04 -0.00833333 0.0
          0.0366667 -0.00833333 0.0
          0.0333333 -0.00833333 0.0
          0.03 -0.00833333 0.0
          0.0266667 -0.00833333 0.0
          0.0233333 -0.00833333 0.0
          0.02 -0.00833333 0.0
          0.0166667 -0.00833333 0.0
          0.0133333 -0.00833333 0.0
          0.01 -0.00833333 0.0
          0.00666667 -0.00833333 0.0
          0.00333333 -0.00833333 0.0
          0 -0.00833333 0.0
          0.1 -0.0116667 0.0
          0.0966667 -0.0116667 0.0
          0.0933333 -0.0116667 0.0
          0.09 -0.0116667 0.0
          0.0866667 -0.0116667 0.0
          0.0833333 -0.0116667 0.0
          0.08 -0.0116667 0.0
          0.0766667 -0.0116667 0.0
          0.0733333 -0.0116667 0.0
          0.07 -0.0116667 0.0
          0.0666667 -0.0116667 0.0
          0.0633333 -0.0116667 0.0
          0.06 -0.0116667 0.0
          0.0566667 -0.0116667 0.0
          0.0533333 -0.0116667 0.0
          0.05 -0.0116667 0.0
          0.0466667 -0.0116667 0.0
          0.0433333 -0.0116667 0.0
          0.04 -0.0116667 0.0
          0.0366667 -0.0116667 0.0
          0.0333333 -0.0116667 0.0
          0.03 -0.0116667 0.0
          0.0266667 -0.0116667 0.0
          0.0233333 -0.0116667 0.0
          0.02 -0.0116667 0.0
          0.0166667 -0.0116667 0.0
          0.0133333 -0.0116667 0.0
          0.01 -0.0116667 0.0
          0.00666667 -0.0116667 0.0
          0.00333333 -0.0116667 0.0
          0 -0.0116667 0.0
          0.1 -0.015 0.0
          0.0966667 -0.015 0.0
          0.0933333 -0.015 0.0
          0.09 -0.015 0.0
          0.0866667 -0.015 0.0
          0.0833333 -0.015 0.0
          0.08 -0.015 0.0
          0.0766667 -0.015 0.0
          0.0733333 -0.015 0.0
          0.07 -0.015 0.0
          0.0666667 -0.015 0.0
          0.0633333 -0.015 0.0
          0.06 -0.015 0.0
          0.0566667 -0.015 0.0
          0.0533333 -0.015 0.0
          0.05 -0.015 0.0
          0.0466667 -0.015 0.0
          0.0433333 -0.015 0.0
          0.04 -0.015 0.0
          0.0366667 -0.015 0.0
          0.0333333 -0.015 0.0
          0.03 -0.015 0.0
          0.0266667 -0.015 0.0
          0.0233333 -0.015 0.0
          0.02 -0.015 0.0
          0.0166667 -0.015 0.0
          0.0133333 -0.015 0.0
          0.01 -0.015 0.0
          0.00666667 -0.015 0.0
          0.00333333 -0.015 0.0
          0 -0.015 0.0
          0.1 -0.0183333 0.0
          0.0966667 -0.0183333 0.0
          0.0933333 -0.0183333 0.0
          0.09 -0.0183333 0.0
          0.0866667 -0.0183333 0.0
          0.0833333 -0.0183333 0.0
          0.08 -0.0183333 0.0
          0.0766667 -0.0183333 0.0
          0.0733333 -0.0183333 0.0
          0.07 -0.0183333 0.0
          0.0666667 -0.0183333 0.0
          0.0633333 -0.0183333 0.0
          0.06 -0.0183333 0.0
          0.0566667 -0.0183333 0.0
          0.0533333 -0.0183333 0.0
          0.05 -0.0183333 0.0
          0.0466667 -0.0183333 0.0
          0.0433333 -0.0183333 0.0
          0.04 -0.0183333 0.0
          0.0366667 -0.0183333 0.0
          0.0333333 -0.0183333 0.0
          0.03 -0.0183333 0.0
          0.0266667 -0.0183333 0.0
          0.0233333 -0.0183333 0.0
          0.02 -0.0183333 0.0
          0.0166667 -0.0183333 0.0
          0.0133333 -0.0183333 0.0
          0.01 -0.0183333 0.0
          0.00666667 -0.0183333 0.0
          0.00333333 -0.0183333 0.0
          0 -0.0183333 0.0
          0.1 -0.0216667 0.0
          0.0966667 -0.0216667 0.0
          0.0933333 -0.0216667 0.0
          0.09 -0.0216667 0.0
          0.0866667 -0.0216667 0.0
          0.0833333 -0.0216667 0.0
          0.08 -0.0216667 0.0
          0.0766667 -0.0216667 0.0
          0.0733333 -0.0216667 0.0
          0.07 -0.0216667 0.0
          0.0666667 -0.0216667 0.0
          0.0633333 -0.0216667 0.0
          0.06 -0.0216667 0.0
          0.0566667 -0.0216667 0.0
          0.0533333 -0.0216667 0.0
          0.05 -0.0216667 0.0
          0.0466667 -0.0216667 0.0
          0.0433333 -0.0216667 0.0
          0.04 -0.0216667 0.0
          0.0366667 -0.0216667 0.0
          0.0333333 -0.0216667 0.0
          0.03 -0.0216667 0.0
          0.0266667 -0.0216667 0.0
          0.0233333 -0.0216667 0.0
          0.02 -0.0216667 0.0
          0.0166667 -0.0216667 0.0
          0.0133333 -0.0216667 0.0
          0.01 -0.0216667 0.0
          0.00666667 -0.0216667 0.0
          0.00333333 -0.0216667 0.0
          0 -0.0216667 0.0
          0.1 -0.025 0.0
          0.0966667 -0.025 0.0
          0.0933333 -0.025 0.0
          0.09 -0.025 0.0
          0.0866667 -0.025 0.0
          0.0833333 -0.025 0.0
          0.08 -0.025 0.0
          0.0766667 -0.025 0.0
          0.0733333 -0.025 0.0
          0.07 -0.025 0.0
          0.0666667 -0.025 0.0
          0.0633333 -0.025 0.0
          0.06 -0.025 0.0
          0.0566667 -0.025 0.0
          0.0533333 -0.025 0.0
          0.05 -0.025 0.0
          0.0466667 -0.025 0.0
          0.0433333 -0.025 0.0
          0.04 -0.025 0.0
          0.0366667 -0.025 0.0
          0.0333333 -0.025 0.0
          0.03 -0.025 0.0
          0.0266667 -0.025 0.0
          0.0233333 -0.025 0.0
          0.02 -0.025 0.0
          0.0166667 -0.025 0.0
          0.0133333 -0.025 0.0
          0.01 -0.025 0.0
          0.00666667 -0.025 0.0
          0.00333333 -0.025 0.0
          0 -0.025 0.0
          0.1 -0.0283333 0.0
          0.0966667 -0.0283333 0.0
          0.0933333 -0.0283333 0.0
          0.09 -0.0283333 0.0
          0.0866667 -0.0283333 0.0
          0.0833333 -0.0283333 0.0
          0.08 -0.0283333 0.0
          0.0766667 -0.0283333 0.0
          0.0733333 -0.0283333 0.0
          0.07 -0.0283333 0.0
          0.0666667 -0.0283333 0.0
          0.0633333 -0.0283333 0.0
          0.06 -0.0283333 0.0
          0.0566667 -0.0283333 0.0
          0.0533333 -0.0283333 0.0
          0.05 -0.0283333 0.0
          0.0466667 -0.0283333 0.0
          0.0433333 -0.0283333 0.0
          0.04 -0.0283333 0.0
          0.0366667 -0.0283333 0.0
          0.0333333 -0.0283333 0.0
          0.03 -0.0283333 0.0
          0.0266667 -0.0283333 0.0
          0.0233333 -0.0283333 0.0
          0.02 -0.0283333 0.0
          0.0166667 -0.0283333 0.0
          0.0133333 -0.0283333 0.0
          0.01 -0.0283333 0.0
          0.00666667 -0.0283333 0.0
          0.00333333 -0.0283333 0.0
          0 -0.0283333 0.0
          0.1 -0.0316667 0.0
          0.0966667 -0.0316667 0.0
          0.0933333 -0.0316667 0.0
          0.09 -0.0316667 0.0
          0.0866667 -0.0316667 0.0
          0.0833333 -0.0316667 0.0
          0.08 -0.0316667 0.0
          0.0766667 -0.0316667 0.0
          0.0733333 -0.0316667 0.0
          0.07 -0.0316667 0.0
          0.0666667 -0.0316667 0.0
          0.0633333 -0.0316667 0.0
          0.06 -0.0316667 0.0
          0.0566667 -0.0316667 0.0
          0.0533333 -0.0316667 0.0
          0.05 -0.0316667 0.0
          0.0466667 -0.0316667 0.0
          0.0433333 -0.0316667 0.0
          0.04 -0.0316667 0.0
          0.0366667 -0.0316667 0.0
          0.0333333 -0.0316667 0.0
          0.03 -0.0316667 0.0
          0.0266667 -0.0316667 0.0
          0.0233333 -0.0316667 0.0
          0.02 -0.0316667 0.0
          0.0166667 -0.0316667 0.0
          0.0133333 -0.0316667 0.0
          0.01 -0.0316667 0.0
          0.00666667 -0.0316667 0.0
          0.00333333 -0.0316667 0.0
          0 -0.0316667 0.0
          0.1 -0.035 0.0
          0.0966667 -0.035 0.0
          0.0933333 -0.035 0.0
          0.09 -0.035 0.0
          0.0866667 -0.035 0.0
          0.0833333 -0.035 0.0
          0.08 -0.035 0.0
          0.0766667 -0.035 0.0
          0.0733333 -0.035 0.0
          0.07 -0.035 0.0
          0.0666667 -0.035 0.0
          0.0633333 -0.035 0.0
          0.06 -0.035 0.0
          0.0566667 -0.035 0.0
          0.0533333 -0.035 0.0
          0.05 -0.035 0.0
          0.0466667 -0.035 0.0