<?xml version="1.0"?>
<VTKFile type="UnstructuredGrid" version="0.1" byte_order="LittleEndian">
  <UnstructuredGrid>
    <Piece NumberOfPoints="961" NumberOfCells="900">
      <PointData Scalars="Temperature">
        <DataArray type="Float32" Name="Temperature" format="ascii">
          45.107
          45.107
          45.107
          45.107
          45.107
          45.107
          45.107
          45.107
          45.107
          45.107
          45.107
          45.107
          45.107
          45.107
          45.107
          45.107
          45.107
          45.107
          45.107
          45.107
          45.107
          45.107
          45.107
          45.107
          45.107
          45.107
          45.107
          45.107
          45.107
          45.107
          45.107
          45.107
          45.107
          45.107
          45.107
          45.107
          45.107
          45.107
          45.107
          45.107
          45.107
          45.107
          45.107
          45.107
          45.107
          45.107
          45.107
          45.107
          45.107
          45.107
          45.107
          45.107
          45.107
          45.107
          45.107
          45.107
          45.107
          45.107
          45.107
          45.107
          45.107
          45.107
          45.107
          45.107
          45.107
          45.107
          45.107
          45.107
          45.107
          45.107
          45.107
          45.107
          45.107
          45.107
          45.107
          45.107
          45.107
          45.107
          45.107
          45.107
          45.107
          45.107
          45.107
          45.107
          45.107
          45.107
          45.107
          45.107
          45.107
          45.107
          45.107
          45.107
          45.107
          45.107
          45.107
          45.107
          45.107
          68.0015
          68.0035
          68.004
          68.003
          45.107
          45.107
          68.3395
          68.3407
          68.3407
          68.3395
          45.107
          45.107
          68.3769
          68.3781
          68.3781
          68.3769
          45.107
          45.107
          68.0815
          68.0826
          68.0822
          68.0803
          45.107
          45.107
          45.107
          45.107
          45.107
          45.107
          45.107
          45.107
          45.107
          68.0045
          68.0052
          68.0056
          68.0055
          45.107
          45.107
          68.342
          68.3422
          68.3422
          68.342
          45.107
          45.107
          68.3794
          68.3796
          68.3796
          68.3794
          45.107
          45.107
          68.0841
          68.0842
          68.0839
          68.0832
          45.107
          45.107
          45.107
          45.107
          45.107
          45.107
          45.107
          45.107
          45.107
          68.0074
          68.008
          68.0084
          68.0084
          45.107
          45.107
          68.3444
          68.3446
          68.3446
          68.3444
          45.107
          45.107
          68.3818
          68.3819
          68.3819
          68.3818
          45.107
          45.107
          68.0869
          68.0869
          68.0866
          68.086
          45.107
          45.107
          45.107
          45.107
          45.107
          45.107
          45.107
          45.107
          45.107
          68.0109
          68.0115
          68.0118
          68.0119
          45.107
          45.107
          68.3473
          68.3474
          68.3474
          68.3473
          45.107
          45.107
          68.3847
          68.3848
          68.3848
          68.3847
          45.107
          45.107
          68.0903
          68.0902
          68.09
          68.0894
          45.107
          45.107
          45.107
          45.107
          45.107
          45.107
          45.107
          45.107
          45.107
          68.015
          68.0156
          68.016
          68.016
          45.107
          45.107
          68.3506
          68.3507
          68.3507
          68.3506
          45.107
          45.107
          68.388
          68.3881
          68.3881
          68.388
          45.107
          45.107
          68.0942
          68.0942
          68.094
          68.0934
          45.107
          45.107
          45.107
          45.107
          45.107
          45.107
          45.107
          45.107
          45.107
          68.0198
          68.0204
          68.0207
          68.0208
          45.107
          45.107
          68.3543
          68.3544
          68.3544
          68.3543
          45.107
          45.107
          68.3917
          68.3918
          68.3918
          68.3917
          45.107
          45.107
          68.0988
          68.0988
          68.0985
          68.098
          45.107
          45.107
          45.107
          45.107
          45.107
          45.107
          45.107
          45.107
          45.107
          68.0252
          68.0258
          68.0261
          68.0262
          45.107
          45.107
          68.3584
          68.3585
          68.3585
          68.3584
          45.107
          45.107
          68.3958
          68.3959
          68.3959
          68.3958
          45.107
          45.107
          68.104
          68.104
          68.1037
          68.1032
          45.107
          45.107
          45.107
          45.107
          45.107
          45.107
          45.107
          45.107
          45.107
          68.0312
          68.0318
          68.0321
          68.0322
          45.107
          45.107
          68.363
          68.3631
          68.3631
          68.363
          45.107
          45.107
          68.4004
          68.4005
          68.4005
          68.4004
          45.107
          45.107
          68.1098
          68.1097
          68.1095
          68.109
          45.107
          45.107
          45.107
          45.107
          45.107
          45.107
          45.107
          45.107
          45.107
          68.0378
          68.0385
          68.0388
          68.0388
          45.107
          45.107
          68.3679
          68.368
          68.368
          68.368
          45.107
          45.107
          68.4054
          68.4054
          68.4054
          68.4054
          45.107
          45.107
          68.1161
          68.1161
          68.1158
          68.1153
          45.107
          45.107
          45.107
          45.107
          45.107
          45.107
          45.107
          45.107
          45.107
          68.0451
          68.0457
          68.0461
          68.0461
          45.107
          45.107
          68.3733
          68.3734
          68.3734
          68.3733
          45.107
          45.107
          68.4108
          68.4108
          68.4108
          68.4107
          45.107
          45.107
          68.1231
          68.123
          68.1228
          68.1223
          45.107
          45.107
          45.107
          45.107
          45.107
          45.107
          45.107
          45.107
          45.107
          68.053
          68.0536
          68.054
          68.054
          45.107
          45.107
          68.3791
          68.3792
          68.3792
          68.3791
          45.107
          45.107
          68.4166
          68.4166
          68.4166
          68.4166
          45.107
          45.107
          68.1306
          68.1306
          68.1303
          68.1298
          45.107
          45.107
          45.107
          45.107
          45.107
          45.107
          45.107
          45.107
          45.107
          68.0616
          68.0622
          68.0625
          68.0625
          45.107
          45.107
          68.3854
          68.3854
          68.3854
          68.3854
          45.107
          45.107
          68.4228
          68.4229
          68.4229
          68.4228
          45.107
          45.107
          68.1387
          68.1387
          68.1384
          68.1379
          45.107
          45.107
          45.107
          45.107
          45.107
          45.107
          45.107
          45.107
          45.107
          68.0707
          68.0713
          68.0717
          68.0717
          45.107
          45.107
          68.392
          68.3921
          68.3921
          68.392
          45.107
          45.107
          68.4294
          68.4295
          68.4295
          68.4294
          45.107
          45.107
          68.1474
          68.1474
          68.1471
          68.1466
          45.107
          45.107
          45.107
          45.107
          45.107
          45.107
          45.107
          45.107
          45.107
          68.0805
          68.0811
          68.0815
          68.0815
          45.107
          45.107
          68.3991
          68.3992
          68.3992
          68.3991
          45.107
          45.107
          68.4365
          68.4366
          68.4366
          68.4365
          45.107
          45.107
          68.1567
          68.1567
          68.1564
          68.1559
          45.107
          45.107
          45.107
          45.107
          45.107
          45.107
          45.107
          45.107
          45.107
          68.0909
          68.0915
          68.0919
          68.0919
          45.107
          45.107
          68.4066
          68.4066
          68.4066
          68.4066
          45.107
          45.107
          68.444
          68.4441
          68.4441
          68.444
          45.107
          45.107
          68.1666
          68.1665
          68.1663
          68.1658
          45.107
          45.107
          45.107
          45.107
          45.107
          45.107
          45.107
          45.107
          45.107
          68.102
          68.1026
          68.1029
          68.103
          45.107
          45.107
          68.4145
          68.4145
          68.4145
          68.4145
          45.107
          45.107
          68.4519
          68.452
          68.452
          68.4519
          45.107
          45.107
          68.177
          68.177
          68.1767
          68.1762
          45.107
          45.107
          45.107
          45.107
          45.107
          45.107
          45.107
          45.107
          45.107
          68.1137
          68.1143
          68.1146
          68.1146
          45.107
          45.107
          68.4228
          68.4229
          68.4229
          68.4228
          45.107
          45.107
          68.4603
          68.4603
          68.4603
          68.4602
          45.107
          45.107
          68.1881
          68.188
          68.1878
          68.1873
          45.107
          45.107
          45.107
          45.107
          45.107
          45.107
          45.107
          45.107
          45.107
          68.126
          68.1266
          68.1269
          68.127
          45.107
          45.107
          68.4315
          68.4316
          68.4316
          68.4315
          45.107
          45.107
          68.469
          68.4691
          68.4691
          68.469
          45.107
          45.107
          68.1997
          68.1997
          68.1994
          68.1989
          45.107
          45.107
          45.107
          45.107
          45.107
          45.107
          45.107
          45.107
          45.107
          68.1389
          68.1395
          68.1399
          68.1399
          45.107
          45.107
          68.4407
          68.4407
          68.4408
          68.4407
          45.107
          45.107
          68.4782
          68.4783
          68.4782
          68.4781
          45.107
          45.107
          68.2119
          68.2119
          68.2116
          68.2111
          45.107
          45.107
          45.107
          45.107
          45.107
          45.107
          45.107
          45.107
          45.107
          68.1524
          68.153
          68.1534
          68.1535
          45.107
          45.107
          68.4502
          68.4503
          68.4504
          68.4504
          45.107
          45.107
          68.4878
          68.4879
          68.4878
          68.4877
          45.107
          45.107
          68.2248
          68.2247
          68.2244
          68.2239
          45.107
          45.107
          45.107
          45.107
          45.107
          45.107
          45.107
          45.107
          45.107
          68.1664
          68.1671
          68.1677
          68.1679
          45.107
          45.107
          68.46
          68.4602
          68.4605
          68.4606
          45.107
          45.107
          68.498
          68.4979
          68.4977
          68.4976
          45.107
          45.107
          68.2384
          68.2382
          68.2377
          68.237
          45.107
          45.107
          45.107
          45.107
          45.107
          45.107
          45.107
          45.107
          45.107
          68.1804
          68.1815
          68.1829
          68.1835
          45.107
          45.107
          68.4697
          68.4703
          68.4712
          68.4716
          45.107
          45.107
          68.5088
          68.5086
          68.5079
          68.5075
          45.107
          45.107
          68.2531
          68.2525
          68.2512
          68.2503
          45.107
          45.107
          45.107
          45.107
          45.107
          45.107
          45.107
          45.107
          45.107
          68.1934
          68.1957
          68.1994
          68.2013
          45.107
          45.107
          68.4784
          68.4801
          68.483
          68.4846
          45.107
          45.107
          68.5211
          68.5201
          68.5181
          68.5169
          45.107
          45.107
          68.27
          68.2681
          68.2645
          68.2623
          45.107
          45.107
          45.107
          45.107
          45.107
          45.107
          45.107
          45.107
          45.107
          68.2023
          68.2071
          68.2198
          68.2244
          45.107
          45.107
          68.4836
          68.4875
          68.4981
          68.5019
          45.107
          45.107
          68.5365
          68.5339
          68.5267
          68.5241
          45.107
          45.107
          68.2921
          68.2876
          68.2749
          68.2702
          45.107
          45.107
          45.107
          45.107
          45.107
          67.9999
          68.0632
          68.1078
          68.148
          68.1917
          68.2152
          68.24
          68.2767
          68.3527
          68.4097
          68.4678
          68.4944
          68.5155
          68.5388
          68.5736
          68.5812
          68.5644
          68.55
          68.5357
          68.516
          68.4685
          68.4162
          68.3429
          68.307
          68.2823
          68.2586
          68.2145
          68.1754
          68.1352
          68.0908
          68.0274
          68.0257
          68.0693
          68.11
          68.1488
          68.1852
          68.2201
          68.2562
          68.3017
          68.3546
          68.4119
          68.4626
          68.5046
          68.5367
          68.5633
          68.5822
          68.5897
          68.5845
          68.5702
          68.5489
          68.5165
          68.4728
          68.4194
          68.3677
          68.3227
          68.2866
          68.2514
          68.2148
          68.1762
          68.1376
          68.0969
          68.0533
          68.0544
          68.0811
          68.1135
          68.1492
          68.1858
          68.2235
          68.2641
          68.3096
          68.3605
          68.4153
          68.4732
          68.5248
          68.5629
          68.5901
          68.6075
          68.6144
          68.6106
          68.5966
          68.572
          68.5353
          68.4841
          68.4275
          68.3761
          68.3305
          68.2897
          68.2516
          68.2143
          68.1773
          68.1413
          68.1088
          68.0821
          68.0755
          68.086
          68.1153
          68.1497
          68.1863
          68.2248
          68.2663
          68.312
          68.3624
          68.4175
          68.4805
          68.5381
          68.578
          68.6058
          68.623
          68.6299
          68.6262
          68.612
          68.5866
          68.5482
          68.4918
          68.4306
          68.3788
          68.3327
          68.2909
          68.2519
          68.2144
          68.1778
          68.1432
          68.1137
          68.1032
        </DataArray>
      </PointData>
      <CellData>
      </CellData>
      <Points>
        <DataArray type="Float32" NumberOfComponents="3" format="ascii">
          0.039 0.00195 0.0
          0.0377 0.00195 0.0
          0.0364 0.00195 0.0
          0.0351 0.00195 0.0
          0.0338 0.00195 0.0
          0.0325 0.00195 0.0
          0.0312 0.00195 0.0
          0.0299 0.00195 0.0
          0.0286 0.00195 0.0
          0.0273 0.00195 0.0
          0.026 0.00195 0.0
          0.0247 0.00195 0.0
          0.0234 0.00195 0.0
          0.0221 0.00195 0.0
          0.0208 0.00195 0.0
          0.0195 0.00195 0.0
          0.0182 0.00195 0.0
          0.0169 0.00195 0.0
          0.0156 0.00195 0.0
          0.0143 0.00195 0.0
          0.013 0.00195 0.0
          0.0117 0.00195 0.0
          0.0104 0.00195 0.0
          0.0091 0.00195 0.0
          0.0078 0.00195 0.0
          0.0065 0.00195 0.0
          0.0052 0.00195 0.0
          0.0039 0.00195 0.0
          0.0026 0.00195 0.0
          0.0013 0.00195 0.0
          0 0.00195 0.0
          0.039 0.00065 0.0
          0.0377 0.00065 0.0
          0.0364 0.00065 0.0
          0.0351 0.00065 0.0
          0.0338 0.00065 0.0
          0.0325 0.00065 0.0
          0.0312 0.00065 0.0
          0.0299 0.00065 0.0
          0.0286 0.00065 0.0
          0.0273 0.00065 0.0
          0.026 0.00065 0.0
          0.0247 0.00065 0.0
          0.0234 0.00065 0.0
          0.0221 0.00065 0.0
          0.0208 0.00065 0.0
          0.0195 0.00065 0.0
          0.0182 0.00065 0.0
          0.0169 0.00065 0.0
          0.0156 0.00065 0.0
          0.0143 0.00065 0.0
          0.013 0.00065 0.0
          0.0117 0.00065 0.0
          0.0104 0.00065 0.0
          0.0091 0.00065 0.0
          0.0078 0.00065 0.0
          0.0065 0.00065 0.0
          0.0052 0.00065 0.0
          0.0039 0.00065 0.0
          0.0026 0.00065 0.0
          0.0013 0.00065 0.0
          0 0.00065 0.0
          0.039 -0.00065 0.0
          0.0377 -0.00065 0.0
          0.0364 -0.00065 0.0
          0.0351 -0.00065 0.0
          0.0338 -0.00065 0.0
          0.0325 -0.00065 0.0
          0.0312 -0.00065 0.0
          0.0299 -0.00065 0.0
          0.0286 -0.00065 0.0
          0.0273 -0.00065 0.0
          0.026 -0.00065 0.0
          0.0247 -0.00065 0.0
          0.0234 -0.00065 0.0
          0.0221 -0.00065 0.0
          0.0208 -0.00065 0.0
          0.0195 -0.00065 0.0
          0.0182 -0.00065 0.0
          0.0169 -0.00065 0.0
          0.0156 -0.00065 0.0
          0.0143 -0.00065 0.0
          0.013 -0.00065 0.0
          0.0117 -0.00065 0.0
          0.0104 -0.00065 0.0
          0.0091 -0.00065 0.0
          0.0078 -0.00065 0.0
          0.0065 -0.00065 0.0
          0.0052 -0.00065 0.0
          0.0039 -0.00065 0.0
          0.0026 -0.00065 0.0
          0.0013 -0.00065 0.0
          0 -0.00065 0.0
          0.039 -0.00195 0.0
          0.0377 -0.00195 0.0
          0.0364 -0.00195 0.0
          0.0351 -0.00195 0.0
          0.0338 -0.00195 0.0
          0.0325 -0.00195 0.0
          0.0312 -0.00195 0.0
          0.0299 -0.00195 0.0
          0.0286 -0.00195 0.0
          0.0273 -0.00195 0.0
          0.026 -0.00195 0.0
          0.0247 -0.00195 0.0
          0.0234 -0.00195 0.0
          0.0221 -0.00195 0.0
          0.0208 -0.00195 0.0
          0.0195 -0.00195 0.0
          0.0182 -0.00195 0.0
          0.0169 -0.00195 0.0
          0.0156 -0.00195 0.0
          0.0143 -0.00195 0.0
          0.013 -0.00195 0.0
          0.0117 -0.00195 0.0
          0.0104 -0.00195 0.0
          0.0091 -0.00195 0.0
          0.0078 -0.00195 0.0
          0.0065 -0.00195 0.0
          0.0052 -0.00195 0.0
          0.0039 -0.00195 0.0
          0.0026 -0.00195 0.0
          0.0013 -0.00195 0.0
          0 -0.00195 0.0
          0.039 -0.00325 0.0
          0.0377 -0.00325 0.0
          0.0364 -0.00325 0.0
          0.0351 -0.00325 0.0
          0.0338 -0.00325 0.0
          0.0325 -0.00325 0.0
          0.0312 -0.00325 0.0
          0.0299 -0.00325 0.0
          0.0286 -0.00325 0.0
          0.0273 -0.00325 0.0
          0.026 -0.00325 0.0
          0.0247 -0.00325 0.0
          0.0234 -0.00325 0.0
          0.0221 -0.00325 0.0
          0.0208 -0.00325 0.0
          0.0195 -0.00325 0.0
          0.0182 -0.00325 0.0
          0.0169 -0.00325 0.0
          0.0156 -0.00325 0.0
          0.0143 -0.00325 0.0
          0.013 -0.00325 0.0
          0.0117 -0.00325 0.0
          0.0104 -0.00325 0.0
          0.0091 -0.00325 0.0
          0.0078 -0.00325 0.0
          0.0065 -0.00325 0.0
          0.0052 -0.00325 0.0
          0.0039 -0.00325 0.0
          0.0026 -0.00325 0.0
          0.0013 -0.00325 0.0
          0 -0.00325 0.0
          0.039 -0.00455 0.0
          0.0377 -0.00455 0.0
          0.0364 -0.00455 0.0
          0.0351 -0.00455 0.0
          0.0338 -0.00455 0.0
          0.0325 -0.00455 0.0
          0.0312 -0.00455 0.0
          0.0299 -0.00455 0.0
          0.0286 -0.00455 0.0
          0.0273 -0.00455 0.0
          0.026 -0.00455 0.0
          0.0247 -0.00455 0.0
          0.0234 -0.00455 0.0
          0.0221 -0.00455 0.0
          0.0208 -0.00455 0.0
          0.0195 -0.00455 0.0
          0.0182 -0.00455 0.0
          0.0169 -0.00455 0.0
          0.0156 -0.00455 0.0
          0.0143 -0.00455 0.0
          0.013 -0.00455 0.0
          0.0117 -0.00455 0.0
          0.0104 -0.00455 0.0
          0.0091 -0.00455 0.0
          0.0078 -0.00455 0.0
          0.0065 -0.00455 0.0
          0.0052 -0.00455 0.0
          0.0039 -0.00455 0.0
          0.0026 -0.00455 0.0
          0.0013 -0.00455 0.0
          0 -0.00455 0.0
          0.039 -0.00585 0.0
          0.0377 -0.00585 0.0
          0.0364 -0.00585 0.0
          0.0351 -0.00585 0.0
          0.0338 -0.00585 0.0
          0.0325 -0.00585 0.0
          0.0312 -0.00585 0.0
          0.0299 -0.00585 0.0
          0.0286 -0.00585 0.0
          0.0273 -0.00585 0.0
          0.026 -0.00585 0.0
          0.0247 -0.00585 0.0
          0.0234 -0.00585 0.0
          0.0221 -0.00585 0.0
          0.0208 -0.00585 0.0
          0.0195 -0.00585 0.0
          0.0182 -0.00585 0.0
          0.0169 -0.00585 0.0
          0.0156 -0.00585 0.0
          0.0143 -0.00585 0.0
          0.013 -0.00585 0.0
          0.0117 -0.00585 0.0
          0.0104 -0.00585 0.0
          0.0091 -0.00585 0.0
          0.0078 -0.00585 0.0
          0.0065 -0.00585 0.0
          0.0052 -0.00585 0.0
          0.0039 -0.00585 0.0
          0.0026 -0.00585 0.0
          0.0013 -0.00585 0.0
          0 -0.00585 0.0
          0.039 -0.00715 0.0
          0.0377 -0.00715 0.0
          0.0364 -0.00715 0.0
          0.0351 -0.00715 0.0
          0.0338 -0.00715 0.0
          0.0325 -0.00715 0.0
          0.0312 -0.00715 0.0
          0.0299 -0.00715 0.0
          0.0286 -0.00715 0.0
          0.0273 -0.00715 0.0
          0.026 -0.00715 0.0
          0.0247 -0.00715 0.0
          0.0234 -0.00715 0.0
          0.0221 -0.00715 0.0
          0.0208 -0.00715 0.0
          0.0195 -0.00715 0.0
          0.0182 -0.00715 0.0
          0.0169 -0.00715 0.0
          0.0156 -0.00715 0.0
          0.0143 -0.00715 0.0
          0.013 -0.00715 0.0
          0.0117 -0.00715 0.0
          0.0104 -0.00715 0.0
          0.0091 -0.00715 0.0
          0.0078 -0.00715 0.0
          0.0065 -0.00715 0.0
          0.0052 -0.00715 0.0
          0.0039 -0.00715 0.0
          0.0026 -0.00715 0.0
          0.0013 -0.00715 0.0
          0 -0.00715 0.0
          0.039 -0.00845 0.0
          0.0377 -0.00845 0.0
          0.0364 -0.00845 0.0
          0.0351 -0.00845 0.0
          0.0338 -0.00845 0.0
          0.0325 -0.00845 0.0
          0.0312 -0.00845 0.0
          0.0299 -0.00845 0.0
          0.0286 -0.00845 0.0
          0.0273 -0.00845 0.0
          0.026 -0.00845 0.0
          0.0247 -0.00845 0.0
          0.0234 -0.00845 0.0
          0.0221 -0.00845 0.0
          0.0208 -0.00845 0.0
          0.0195 -0.00845 0.0
          0.0182 -0.00845 0.0
          0.0169 -0.00845 0.0
          0.0156 -0.00845 0.0
          0.0143 -0.00845 0.0
          0.013 -0.00845 0.0
          0.0117 -0.00845 0.0
          0.0104 -0.00845 0.0
          0.0091 -0.00845 0.0
          0.0078 -0.00845 0.0
          0.0065 -0.00845 0.0
          0.0052 -0.00845 0.0
          0.0039 -0.00845 0.0
          0.0026 -0.00845 0.0
          0.0013 -0.00845 0.0
          0 -0.00845 0.0
          0.039 -0.00975 0.0
          0.0377 -0.00975 0.0
          0.0364 -0.00975 0.0
          0.0351 -0.00975 0.0
          0.0338 -0.00975 0.0
          0.0325 -0.00975 0.0
          0.0312 -0.00975 0.0
          0.0299 -0.00975 0.0
          0.0286 -0.00975 0.0
          0.0273 -0.00975 0.0
          0.026 -0.00975 0.0
          0.0247 -0.00975 0.0
          0.0234 -0.00975 0.0
          0.0221 -0.00975 0.0
          0.0208 -0.00975 0.0
          0.0195 -0.00975 0.0
          0.0182 -0.00975 0.0
          0.0169 -0.00975 0.0
          0.0156 -0.00975 0.0
          0.0143 -0.00975 0.0
          0.013 -0.00975 0.0
          0.0117 -0.00975 0.0
          0.0104 -0.00975 0.0
          0.0091 -0.00975 0.0
          0.0078 -0.00975 0.0
          0.0065 -0.00975 0.0
          0.0052 -0.00975 0.0
          0.0039 -0.00975 0.0
          0.0026 -0.00975 0.0
          0.0013 -0.00975 0.0
          0 -0.00975 0.0
          0.039 -0.01105 0.0
          0.0377 -0.01105 0.0
          0.0364 -0.01105 0.0
          0.0351 -0.01105 0.0
          0.0338 -0.01105 0.0
          0.0325 -0.01105 0.0
          0.0312 -0.01105 0.0
          0.0299 -0.01105 0.0
          0.0286 -0.01105 0.0
          0.0273 -0.01105 0.0
          0.026 -0.01105 0.0
          0.0247 -0.01105 0.0
          0.0234 -0.01105 0.0
          0.0221 -0.01105 0.0
          0.0208 -0.01105 0.0
          0.0195 -0.01105 0.0
          0.0182 -0.01105 0.0
          0.0169 -0.01105 0.0
          0.0156 -0.01105 0.0
          0.0143 -0.01105 0.0
          0.013 -0.01105 0.0
          0.0117 -0.01105 0.0
          0.0104 -0.01105 0.0
          0.0091 -0.01105 0.0
          0.0078 -0.01105 0.0
          0.0065 -0.01105 0.0
          0.0052 -0.01105 0.0
          0.0039 -0.01105 0.0
          0.0026 -0.01105 0.0
          0.0013 -0.01105 0.0
          0 -0.01105 0.0
          0.039 -0.01235 0.0
          0.0377 -0.01235 0.0
          0.0364 -0.01235 0.0
          0.0351 -0.01235 0.0
          0.0338 -0.01235 0.0
          0.0325 -0.01235 0.0
          0.0312 -0.01235 0.0
          0.0299 -0.01235 0.0
          0.0286 -0.01235 0.0
          0.0273 -0.01235 0.0
          0.026 -0.01235 0.0
          0.0247 -0.01235 0.0
          0.0234 -0.01235 0.0
          0.0221 -0.01235 0.0
          0.0208 -0.01235 0.0
          0.0195 -0.01235 0.0
          0.0182 -0.01235 0.0
          0.0169 -0.01235 0.0
          0.0156 -0.01235 0.0
          0.0143 -0.01235 0.0
          0.013 -0.01235 0.0
          0.0117 -0.01235 0.0
          0.0104 -0.01235 0.0
          0.0091 -0.01235 0.0
          0.0078 -0.01235 0.0
          0.0065 -0.01235 0.0
          0.0052 -0.01235 0.0
          0.0039 -0.01235 0.0
          0.0026 -0.01235 0.0
          0.0013 -0.01235 0.0
          0 -0.01235 0.0
          0.039 -0.01365 0.0
          0.0377 -0.01365 0.0
          0.0364 -0.01365 0.0
          0.0351 -0.01365 0.0
          0.0338 -0.01365 0.0
          0.0325 -0.01365 0.0
          0.0312 -0.01365 0.0
          0.0299 -0.01365 0.0
          0.0286 -0.01365 0.0
          0.0273 -0.01365 0.0
          0.026 -0.01365 0.0
          0.0247 -0.01365 0.0
          0.0234 -0.01365 0.0
          0.0221 -0.01365 0.0
          0.0208 -0.01365 0.0
          0.0195 -0.01365 0.0
          0.0182 -0.01365 0.0
          0.0169 -0.01365 0.0
          0.0156 -0.01365 0.0
          0.0143 -0.01365 0.0
          0.013 -0.01365 0.0
          0.0117 -0.01365 0.0
          0.0104 -0.01365 0.0
          0.0091 -0.01365 0.0
          0.0078 -0.01365 0.0
          0.0065 -0.01365 0.0
          0.0052 -0.01365 0.0
          0.0039 -0.01365 0.0
          0.0026 -0.01365 0.0
          0.0013 -0.01365 0.0
          0 -0.01365 0.0
          0.039 -0.01495 0.0
          0.0377 -0.01495 0.0
          0.0364 -0.01495 0.0
          0.0351 -0.01495 0.0
          0.0338 -0.01495 0.0
          0.0325 -0.01495 0.0
          0.0312 -0.01495 0.0
          0.0299 -0.01495 0.0
          0.0286 -0.01495 0.0
          0.0273 -0.01495 0.0
          0.026 -0.01495 0.0
          0.0247 -0.01495 0.0
          0.0234 -0.01495 0.0
          0.0221 -0.01495 0.0
          0.0208 -0.01495 0.0
          0.0195 -0.01495 0.0
          0.0182 -0.01495 0.0
          0.0169 -0.01495 0.0
          0.0156 -0.01495 0.0
          0.0143 -0.01495 0.0
          0.013 -0.01495 0.0
          0.0117 -0.01495 0.0
          0.0104 -0.01495 0.0
          0.0091 -0.01495 0.0
          0.0078 -0.01495 0.0
          0.0065 -0.01495 0.0
          0.0052 -0.01495 0.0
          0.0039 -0.01495 0.0