<?xml version="1.0"?>
<VTKFile type="UnstructuredGrid" version="0.1" byte_order="LittleEndian">
  <UnstructuredGrid>
    <Piece NumberOfPoints="961" NumberOfCells="900">
      <PointData Scalars="Temperature">
        <DataArray type="Float32" Name="Temperature" format="ascii">
          41.5511
          41.5511
          41.5511
          41.5511
          41.5511
          41.5511
          41.5511
          41.5511
          41.5511
          41.5511
          41.5511
          41.5511
          41.5511
          41.5511
          41.5511
          41.5511
          41.5511
          41.5511
          41.5511
          41.5511
          41.5511
          41.5511
          41.5511
          41.5511
          41.5511
          41.5511
          41.5511
          41.5511
          41.5511
          41.5511
          41.5511
          41.5511
          41.5511
          41.5511
          41.5511
          41.5511
          41.5511
          41.5511
          41.5511
          41.5511
          41.5511
          41.5511
          41.5511
          41.5511
          41.5511
          41.5511
          41.5511
          41.5511
          41.5511
          41.5511
          41.5511
          41.5511
          41.5511
          41.5511
          41.5511
          41.5511
          41.5511
          41.5511
          41.5511
          41.5511
          41.5511
          41.5511
          41.5511
          41.5511
          41.5511
          41.5511
          41.5511
          41.5511
          41.5511
          41.5511
          41.5511
          41.5511
          41.5511
          41.5511
          41.5511
          41.5511
          41.5511
          41.5511
          41.5511
          41.5511
          41.5511
          41.5511
          41.5511
          41.5511
          41.5511
          41.5511
          41.5511
          41.5511
          41.5511
          41.5511
          41.5511
          41.5511
          41.5511
          41.5511
          41.5511
          41.5511
          41.5511
          61.0441
          61.0459
          61.0463
          61.0454
          41.5511
          41.5511
          61.3561
          61.3571
          61.3571
          61.3561
          41.5511
          41.5511
          61.3929
          61.3939
          61.3939
          61.3928
          41.5511
          41.5511
          61.1202
          61.1211
          61.1208
          61.1191
          41.5511
          41.5511
          41.5511
          41.5511
          41.5511
          41.5511
          41.5511
          41.5511
          41.5511
          61.0468
          61.0474
          61.0478
          61.0477
          41.5511
          41.5511
          61.3583
          61.3585
          61.3585
          61.3583
          41.5511
          41.5511
          61.395
          61.3952
          61.3952
          61.395
          41.5511
          41.5511
          61.1225
          61.1225
          61.1223
          61.1217
          41.5511
          41.5511
          41.5511
          41.5511
          41.5511
          41.5511
          41.5511
          41.5511
          41.5511
          61.0495
          61.0501
          61.0504
          61.0504
          41.5511
          41.5511
          61.3606
          61.3607
          61.3607
          61.3606
          41.5511
          41.5511
          61.3974
          61.3975
          61.3975
          61.3974
          41.5511
          41.5511
          61.1251
          61.1251
          61.1248
          61.1243
          41.5511
          41.5511
          41.5511
          41.5511
          41.5511
          41.5511
          41.5511
          41.5511
          41.5511
          61.0529
          61.0534
          61.0537
          61.0537
          41.5511
          41.5511
          61.3635
          61.3636
          61.3636
          61.3635
          41.5511
          41.5511
          61.4002
          61.4003
          61.4003
          61.4002
          41.5511
          41.5511
          61.1284
          61.1284
          61.1281
          61.1277
          41.5511
          41.5511
          41.5511
          41.5511
          41.5511
          41.5511
          41.5511
          41.5511
          41.5511
          61.057
          61.0575
          61.0578
          61.0578
          41.5511
          41.5511
          61.3669
          61.3669
          61.3669
          61.3669
          41.5511
          41.5511
          61.4036
          61.4037
          61.4037
          61.4036
          41.5511
          41.5511
          61.1323
          61.1323
          61.1321
          61.1316
          41.5511
          41.5511
          41.5511
          41.5511
          41.5511
          41.5511
          41.5511
          41.5511
          41.5511
          61.0618
          61.0623
          61.0626
          61.0626
          41.5511
          41.5511
          61.3708
          61.3708
          61.3708
          61.3708
          41.5511
          41.5511
          61.4075
          61.4076
          61.4076
          61.4075
          41.5511
          41.5511
          61.137
          61.137
          61.1367
          61.1363
          41.5511
          41.5511
          41.5511
          41.5511
          41.5511
          41.5511
          41.5511
          41.5511
          41.5511
          61.0673
          61.0678
          61.0681
          61.0681
          41.5511
          41.5511
          61.3752
          61.3752
          61.3752
          61.3752
          41.5511
          41.5511
          61.4119
          61.412
          61.412
          61.4119
          41.5511
          41.5511
          61.1423
          61.1423
          61.142
          61.1416
          41.5511
          41.5511
          41.5511
          41.5511
          41.5511
          41.5511
          41.5511
          41.5511
          41.5511
          61.0734
          61.074
          61.0743
          61.0743
          41.5511
          41.5511
          61.3801
          61.3802
          61.3802
          61.3801
          41.5511
          41.5511
          61.4169
          61.4169
          61.4169
          61.4169
          41.5511
          41.5511
          61.1482
          61.1482
          61.148
          61.1476
          41.5511
          41.5511
          41.5511
          41.5511
          41.5511
          41.5511
          41.5511
          41.5511
          41.5511
          61.0803
          61.0809
          61.0811
          61.0812
          41.5511
          41.5511
          61.3856
          61.3856
          61.3856
          61.3856
          41.5511
          41.5511
          61.4223
          61.4224
          61.4224
          61.4223
          41.5511
          41.5511
          61.1549
          61.1549
          61.1546
          61.1542
          41.5511
          41.5511
          41.5511
          41.5511
          41.5511
          41.5511
          41.5511
          41.5511
          41.5511
          61.0879
          61.0884
          61.0887
          61.0888
          41.5511
          41.5511
          61.3916
          61.3916
          61.3916
          61.3916
          41.5511
          41.5511
          61.4283
          61.4284
          61.4284
          61.4283
          41.5511
          41.5511
          61.1622
          61.1622
          61.1619
          61.1615
          41.5511
          41.5511
          41.5511
          41.5511
          41.5511
          41.5511
          41.5511
          41.5511
          41.5511
          61.0962
          61.0967
          61.097
          61.097
          41.5511
          41.5511
          61.3981
          61.3981
          61.3981
          61.3981
          41.5511
          41.5511
          61.4348
          61.4349
          61.4349
          61.4348
          41.5511
          41.5511
          61.1701
          61.1701
          61.1699
          61.1695
          41.5511
          41.5511
          41.5511
          41.5511
          41.5511
          41.5511
          41.5511
          41.5511
          41.5511
          61.1052
          61.1057
          61.106
          61.106
          41.5511
          41.5511
          61.4051
          61.4052
          61.4052
          61.4051
          41.5511
          41.5511
          61.4419
          61.4419
          61.4419
          61.4419
          41.5511
          41.5511
          61.1788
          61.1787
          61.1785
          61.1781
          41.5511
          41.5511
          41.5511
          41.5511
          41.5511
          41.5511
          41.5511
          41.5511
          41.5511
          61.1149
          61.1154
          61.1157
          61.1157
          41.5511
          41.5511
          61.4126
          61.4127
          61.4127
          61.4126
          41.5511
          41.5511
          61.4494
          61.4495
          61.4495
          61.4494
          41.5511
          41.5511
          61.1881
          61.188
          61.1878
          61.1874
          41.5511
          41.5511
          41.5511
          41.5511
          41.5511
          41.5511
          41.5511
          41.5511
          41.5511
          61.1252
          61.1258
          61.126
          61.1261
          41.5511
          41.5511
          61.4207
          61.4208
          61.4208
          61.4207
          41.5511
          41.5511
          61.4575
          61.4576
          61.4576
          61.4575
          41.5511
          41.5511
          61.198
          61.198
          61.1978
          61.1973
          41.5511
          41.5511
          41.5511
          41.5511
          41.5511
          41.5511
          41.5511
          41.5511
          41.5511
          61.1363
          61.1368
          61.1371
          61.1371
          41.5511
          41.5511
          61.4293
          61.4294
          61.4294
          61.4293
          41.5511
          41.5511
          61.4661
          61.4661
          61.4661
          61.4661
          41.5511
          41.5511
          61.2086
          61.2086
          61.2084
          61.2079
          41.5511
          41.5511
          41.5511
          41.5511
          41.5511
          41.5511
          41.5511
          41.5511
          41.5511
          61.1481
          61.1486
          61.1489
          61.1489
          41.5511
          41.5511
          61.4384
          61.4385
          61.4385
          61.4384
          41.5511
          41.5511
          61.4752
          61.4753
          61.4753
          61.4752
          41.5511
          41.5511
          61.2199
          61.2199
          61.2197
          61.2192
          41.5511
          41.5511
          41.5511
          41.5511
          41.5511
          41.5511
          41.5511
          41.5511
          41.5511
          61.1606
          61.1611
          61.1614
          61.1614
          41.5511
          41.5511
          61.448
          61.4481
          61.4481
          61.448
          41.5511
          41.5511
          61.4848
          61.4849
          61.4849
          61.4848
          41.5511
          41.5511
          61.2318
          61.2318
          61.2316
          61.2312
          41.5511
          41.5511
          41.5511
          41.5511
          41.5511
          41.5511
          41.5511
          41.5511
          41.5511
          61.1737
          61.1743
          61.1745
          61.1746
          41.5511
          41.5511
          61.4582
          61.4582
          61.4583
          61.4582
          41.5511
          41.5511
          61.495
          61.4951
          61.4951
          61.495
          41.5511
          41.5511
          61.2444
          61.2444
          61.2442
          61.2438
          41.5511
          41.5511
          41.5511
          41.5511
          41.5511
          41.5511
          41.5511
          41.5511
          41.5511
          61.1876
          61.1881
          61.1884
          61.1885
          41.5511
          41.5511
          61.4688
          61.4689
          61.4689
          61.4689
          41.5511
          41.5511
          61.5057
          61.5057
          61.5057
          61.5057
          41.5511
          41.5511
          61.2577
          61.2577
          61.2574
          61.257
          41.5511
          41.5511
          41.5511
          41.5511
          41.5511
          41.5511
          41.5511
          41.5511
          41.5511
          61.2021
          61.2026
          61.203
          61.2031
          41.5511
          41.5511
          61.4799
          61.4801
          61.4802
          61.4801
          41.5511
          41.5511
          61.5169
          61.517
          61.5169
          61.5168
          41.5511
          41.5511
          61.2717
          61.2716
          61.2713
          61.2709
          41.5511
          41.5511
          41.5511
          41.5511
          41.5511
          41.5511
          41.5511
          41.5511
          41.5511
          61.2172
          61.2178
          61.2184
          61.2186
          41.5511
          41.5511
          61.4915
          61.4917
          61.492
          61.492
          41.5511
          41.5511
          61.5288
          61.5288
          61.5286
          61.5284
          41.5511
          41.5511
          61.2865
          61.2863
          61.2858
          61.2853
          41.5511
          41.5511
          41.5511
          41.5511
          41.5511
          41.5511
          41.5511
          41.5511
          41.5511
          61.2325
          61.2334
          61.2346
          61.2352
          41.5511
          41.5511
          61.5031
          61.5036
          61.5045
          61.5049
          41.5511
          41.5511
          61.5415
          61.5412
          61.5406
          61.5402
          41.5511
          41.5511
          61.3024
          61.3019
          61.3007
          61.2998
          41.5511
          41.5511
          41.5511
          41.5511
          41.5511
          41.5511
          41.5511
          41.5511
          41.5511
          61.2468
          61.2489
          61.2523
          61.254
          41.5511
          41.5511
          61.5138
          61.5154
          61.5182
          61.5197
          41.5511
          41.5511
          61.5556
          61.5546
          61.5527
          61.5516
          41.5511
          41.5511
          61.3205
          61.3187
          61.3154
          61.3134
          41.5511
          41.5511
          41.5511
          41.5511
          41.5511
          41.5511
          41.5511
          41.5511
          41.5511
          61.2576
          61.262
          61.2736
          61.2778
          41.5511
          41.5511
          61.5212
          61.525
          61.5351
          61.5388
          41.5511
          41.5511
          61.5728
          61.5704
          61.5635
          61.561
          41.5511
          41.5511
          61.3434
          61.3393
          61.3277
          61.3234
          41.5511
          41.5511
          41.5511
          41.5511
          41.5511
          61.0881
          61.1422
          61.1803
          61.2149
          61.2516
          61.2718
          61.2945
          61.3292
          61.4016
          61.4554
          61.5092
          61.5339
          61.5542
          61.5774
          61.6126
          61.62
          61.6025
          61.588
          61.5744
          61.5565
          61.5131
          61.4637
          61.3937
          61.3595
          61.3368
          61.3163
          61.2791
          61.2453
          61.2107
          61.1726
          61.1185
          61.1101
          61.1474
          61.1823
          61.2156
          61.2472
          61.2781
          61.3111
          61.3536
          61.4036
          61.4578
          61.5057
          61.5456
          61.5765
          61.6026
          61.6212
          61.6286
          61.6234
          61.6095
          61.5892
          61.5587
          61.5175
          61.4669
          61.418
          61.3757
          61.3426
          61.3114
          61.2794
          61.246
          61.2128
          61.1778
          61.1405
          61.1346
          61.1574
          61.1854
          61.2163
          61.2485
          61.2821
          61.3193
          61.3616
          61.4095
          61.4615
          61.5169
          61.5666
          61.6034
          61.6298
          61.6468
          61.6536
          61.65
          61.6365
          61.6131
          61.5781
          61.5291
          61.4751
          61.4265
          61.3839
          61.3464
          61.3122
          61.2793
          61.2471
          61.2159
          61.188
          61.1651
          61.1526
          61.1616
          61.1869
          61.2169
          61.2491
          61.2836
          61.3216
          61.3641
          61.4115
          61.4638
          61.5244
          61.5801
          61.6187
          61.6456
          61.6624
          61.6691
          61.6657
          61.6521
          61.6279
          61.5912
          61.537
          61.4783
          61.4293
          61.3862
          61.3478
          61.3127
          61.2795
          61.2476
          61.2175
          61.1922
          61.1831
        </DataArray>
      </PointData>
      <CellData>
      </CellData>
      <Points>
        <DataArray type="Float32" NumberOfComponents="3" format="ascii">
          0.039 0.00195 0.0
          0.0377 0.00195 0.0
          0.0364 0.00195 0.0
          0.0351 0.00195 0.0
          0.0338 0.00195 0.0
          0.0325 0.00195 0.0
          0.0312 0.00195 0.0
          0.0299 0.00195 0.0
          0.0286 0.00195 0.0
          0.0273 0.00195 0.0
          0.026 0.00195 0.0
          0.0247 0.00195 0.0
          0.0234 0.00195 0.0
          0.0221 0.00195 0.0
          0.0208 0.00195 0.0
          0.0195 0.00195 0.0
          0.0182 0.00195 0.0
          0.0169 0.00195 0.0
          0.0156 0.00195 0.0
          0.0143 0.00195 0.0
          0.013 0.00195 0.0
          0.0117 0.00195 0.0
          0.0104 0.00195 0.0
          0.0091 0.00195 0.0
          0.0078 0.00195 0.0
          0.0065 0.00195 0.0
          0.0052 0.00195 0.0
          0.0039 0.00195 0.0
          0.0026 0.00195 0.0
          0.0013 0.00195 0.0
          0 0.00195 0.0
          0.039 0.00065 0.0
          0.0377 0.00065 0.0
          0.0364 0.00065 0.0
          0.0351 0.00065 0.0
          0.0338 0.00065 0.0
          0.0325 0.00065 0.0
          0.0312 0.00065 0.0
          0.0299 0.00065 0.0
          0.0286 0.00065 0.0
          0.0273 0.00065 0.0
          0.026 0.00065 0.0
          0.0247 0.00065 0.0
          0.0234 0.00065 0.0
          0.0221 0.00065 0.0
          0.0208 0.00065 0.0
          0.0195 0.00065 0.0
          0.0182 0.00065 0.0
          0.0169 0.00065 0.0
          0.0156 0.00065 0.0
          0.0143 0.00065 0.0
          0.013 0.00065 0.0
          0.0117 0.00065 0.0
          0.0104 0.00065 0.0
          0.0091 0.00065 0.0
          0.0078 0.00065 0.0
          0.0065 0.00065 0.0
          0.0052 0.00065 0.0
          0.0039 0.00065 0.0
          0.0026 0.00065 0.0
          0.0013 0.00065 0.0
          0 0.00065 0.0
          0.039 -0.00065 0.0
          0.0377 -0.00065 0.0
          0.0364 -0.00065 0.0
          0.0351 -0.00065 0.0
          0.0338 -0.00065 0.0
          0.0325 -0.00065 0.0
          0.0312 -0.00065 0.0
          0.0299 -0.00065 0.0
          0.0286 -0.00065 0.0
          0.0273 -0.00065 0.0
          0.026 -0.00065 0.0
          0.0247 -0.00065 0.0
          0.0234 -0.00065 0.0
          0.0221 -0.00065 0.0
          0.0208 -0.00065 0.0
          0.0195 -0.00065 0.0
          0.0182 -0.00065 0.0
          0.0169 -0.00065 0.0
          0.0156 -0.00065 0.0
          0.0143 -0.00065 0.0
          0.013 -0.00065 0.0
          0.0117 -0.00065 0.0
          0.0104 -0.00065 0.0
          0.0091 -0.00065 0.0
          0.0078 -0.00065 0.0
          0.0065 -0.00065 0.0
          0.0052 -0.00065 0.0
          0.0039 -0.00065 0.0
          0.0026 -0.00065 0.0
          0.0013 -0.00065 0.0
          0 -0.00065 0.0
          0.039 -0.00195 0.0
          0.0377 -0.00195 0.0
          0.0364 -0.00195 0.0
          0.0351 -0.00195 0.0
          0.0338 -0.00195 0.0
          0.0325 -0.00195 0.0
          0.0312 -0.00195 0.0
          0.0299 -0.00195 0.0
          0.0286 -0.00195 0.0
          0.0273 -0.00195 0.0
          0.026 -0.00195 0.0
          0.0247 -0.00195 0.0
          0.0234 -0.00195 0.0
          0.0221 -0.00195 0.0
          0.0208 -0.00195 0.0
          0.0195 -0.00195 0.0
          0.0182 -0.00195 0.0
          0.0169 -0.00195 0.0
          0.0156 -0.00195 0.0
          0.0143 -0.00195 0.0
          0.013 -0.00195 0.0
          0.0117 -0.00195 0.0
          0.0104 -0.00195 0.0
          0.0091 -0.00195 0.0
          0.0078 -0.00195 0.0
          0.0065 -0.00195 0.0
          0.0052 -0.00195 0.0
          0.0039 -0.00195 0.0
          0.0026 -0.00195 0.0
          0.0013 -0.00195 0.0
          0 -0.00195 0.0
          0.039 -0.00325 0.0
          0.0377 -0.00325 0.0
          0.0364 -0.00325 0.0
          0.0351 -0.00325 0.0
          0.0338 -0.00325 0.0
          0.0325 -0.00325 0.0
          0.0312 -0.00325 0.0
          0.0299 -0.00325 0.0
          0.0286 -0.00325 0.0
          0.0273 -0.00325 0.0
          0.026 -0.00325 0.0
          0.0247 -0.00325 0.0
          0.0234 -0.00325 0.0
          0.0221 -0.00325 0.0
          0.0208 -0.00325 0.0
          0.0195 -0.00325 0.0
          0.0182 -0.00325 0.0
          0.0169 -0.00325 0.0
          0.0156 -0.00325 0.0
          0.0143 -0.00325 0.0
          0.013 -0.00325 0.0
          0.0117 -0.00325 0.0
          0.0104 -0.00325 0.0
          0.0091 -0.00325 0.0
          0.0078 -0.00325 0.0
          0.0065 -0.00325 0.0
          0.0052 -0.00325 0.0
          0.0039 -0.00325 0.0
          0.0026 -0.00325 0.0
          0.0013 -0.00325 0.0
          0 -0.00325 0.0
          0.039 -0.00455 0.0
          0.0377 -0.00455 0.0
          0.0364 -0.00455 0.0
          0.0351 -0.00455 0.0
          0.0338 -0.00455 0.0
          0.0325 -0.00455 0.0
          0.0312 -0.00455 0.0
          0.0299 -0.00455 0.0
          0.0286 -0.00455 0.0
          0.0273 -0.00455 0.0
          0.026 -0.00455 0.0
          0.0247 -0.00455 0.0
          0.0234 -0.00455 0.0
          0.0221 -0.00455 0.0
          0.0208 -0.00455 0.0
          0.0195 -0.00455 0.0
          0.0182 -0.00455 0.0
          0.0169 -0.00455 0.0
          0.0156 -0.00455 0.0
          0.0143 -0.00455 0.0
          0.013 -0.00455 0.0
          0.0117 -0.00455 0.0
          0.0104 -0.00455 0.0
          0.0091 -0.00455 0.0
          0.0078 -0.00455 0.0
          0.0065 -0.00455 0.0
          0.0052 -0.00455 0.0
          0.0039 -0.00455 0.0
          0.0026 -0.00455 0.0
          0.0013 -0.00455 0.0
          0 -0.00455 0.0
          0.039 -0.00585 0.0
          0.0377 -0.00585 0.0
          0.0364 -0.00585 0.0
          0.0351 -0.00585 0.0
          0.0338 -0.00585 0.0
          0.0325 -0.00585 0.0
          0.0312 -0.00585 0.0
          0.0299 -0.00585 0.0
          0.0286 -0.00585 0.0
          0.0273 -0.00585 0.0
          0.026 -0.00585 0.0
          0.0247 -0.00585 0.0
          0.0234 -0.00585 0.0
          0.0221 -0.00585 0.0
          0.0208 -0.00585 0.0
          0.0195 -0.00585 0.0
          0.0182 -0.00585 0.0
          0.0169 -0.00585 0.0
          0.0156 -0.00585 0.0
          0.0143 -0.00585 0.0
          0.013 -0.00585 0.0
          0.0117 -0.00585 0.0
          0.0104 -0.00585 0.0
          0.0091 -0.00585 0.0
          0.0078 -0.00585 0.0
          0.0065 -0.00585 0.0
          0.0052 -0.00585 0.0
          0.0039 -0.00585 0.0
          0.0026 -0.00585 0.0
          0.0013 -0.00585 0.0
          0 -0.00585 0.0
          0.039 -0.00715 0.0
          0.0377 -0.00715 0.0
          0.0364 -0.00715 0.0
          0.0351 -0.00715 0.0
          0.0338 -0.00715 0.0
          0.0325 -0.00715 0.0
          0.0312 -0.00715 0.0
          0.0299 -0.00715 0.0
          0.0286 -0.00715 0.0
          0.0273 -0.00715 0.0
          0.026 -0.00715 0.0
          0.0247 -0.00715 0.0
          0.0234 -0.00715 0.0
          0.0221 -0.00715 0.0
          0.0208 -0.00715 0.0
          0.0195 -0.00715 0.0
          0.0182 -0.00715 0.0
          0.0169 -0.00715 0.0
          0.0156 -0.00715 0.0
          0.0143 -0.00715 0.0
          0.013 -0.00715 0.0
          0.0117 -0.00715 0.0
          0.0104 -0.00715 0.0
          0.0091 -0.00715 0.0
          0.0078 -0.00715 0.0
          0.0065 -0.00715 0.0
          0.0052 -0.00715 0.0
          0.0039 -0.00715 0.0
          0.0026 -0.00715 0.0
          0.0013 -0.00715 0.0
          0 -0.00715 0.0
          0.039 -0.00845 0.0
          0.0377 -0.00845 0.0
          0.0364 -0.00845 0.0
          0.0351 -0.00845 0.0
          0.0338 -0.00845 0.0
          0.0325 -0.00845 0.0
          0.0312 -0.00845 0.0
          0.0299 -0.00845 0.0
          0.0286 -0.00845 0.0
          0.0273 -0.00845 0.0
          0.026 -0.00845 0.0
          0.0247 -0.00845 0.0
          0.0234 -0.00845 0.0
          0.0221 -0.00845 0.0
          0.0208 -0.00845 0.0
          0.0195 -0.00845 0.0
          0.0182 -0.00845 0.0
          0.0169 -0.00845 0.0
          0.0156 -0.00845 0.0
          0.0143 -0.00845 0.0
          0.013 -0.00845 0.0
          0.0117 -0.00845 0.0
          0.0104 -0.00845 0.0
          0.0091 -0.00845 0.0
          0.0078 -0.00845 0.0
          0.0065 -0.00845 0.0
          0.0052 -0.00845 0.0
          0.0039 -0.00845 0.0
          0.0026 -0.00845 0.0
          0.0013 -0.00845 0.0
          0 -0.00845 0.0
          0.039 -0.00975 0.0
          0.0377 -0.00975 0.0
          0.0364 -0.00975 0.0
          0.0351 -0.00975 0.0
          0.0338 -0.00975 0.0
          0.0325 -0.00975 0.0
          0.0312 -0.00975 0.0
          0.0299 -0.00975 0.0
          0.0286 -0.00975 0.0
          0.0273 -0.00975 0.0
          0.026 -0.00975 0.0
          0.0247 -0.00975 0.0
          0.0234 -0.00975 0.0
          0.0221 -0.00975 0.0
          0.0208 -0.00975 0.0
          0.0195 -0.00975 0.0
          0.0182 -0.00975 0.0
          0.0169 -0.00975 0.0
          0.0156 -0.00975 0.0
          0.0143 -0.00975 0.0
          0.013 -0.00975 0.0
          0.0117 -0.00975 0.0
          0.0104 -0.00975 0.0
          0.0091 -0.00975 0.0
          0.0078 -0.00975 0.0
          0.0065 -0.00975 0.0
          0.0052 -0.00975 0.0
          0.0039 -0.00975 0.0
          0.0026 -0.00975 0.0
          0.0013 -0.00975 0.0
          0 -0.00975 0.0
          0.039 -0.01105 0.0
          0.0377 -0.01105 0.0
          0.0364 -0.01105 0.0
          0.0351 -0.01105 0.0
          0.0338 -0.01105 0.0
          0.0325 -0.01105 0.0
          0.0312 -0.01105 0.0
          0.0299 -0.01105 0.0
          0.0286 -0.01105 0.0
          0.0273 -0.01105 0.0
          0.026 -0.01105 0.0
          0.0247 -0.01105 0.0
          0.0234 -0.01105 0.0
          0.0221 -0.01105 0.0
          0.0208 -0.01105 0.0
          0.0195 -0.01105 0.0
          0.0182 -0.01105 0.0
          0.0169 -0.01105 0.0
          0.0156 -0.01105 0.0
          0.0143 -0.01105 0.0
          0.013 -0.01105 0.0
          0.0117 -0.01105 0.0
          0.0104 -0.01105 0.0
          0.0091 -0.01105 0.0
          0.0078 -0.01105 0.0
          0.0065 -0.01105 0.0
          0.0052 -0.01105 0.0
          0.0039 -0.01105 0.0
          0.0026 -0.01105 0.0
          0.0013 -0.01105 0.0
          0 -0.01105 0.0
          0.039 -0.01235 0.0
          0.0377 -0.01235 0.0
          0.0364 -0.01235 0.0
          0.0351 -0.01235 0.0
          0.0338 -0.01235 0.0
          0.0325 -0.01235 0.0
          0.0312 -0.01235 0.0
          0.0299 -0.01235 0.0
          0.0286 -0.01235 0.0
          0.0273 -0.01235 0.0
          0.026 -0.01235 0.0
          0.0247 -0.01235 0.0
          0.0234 -0.01235 0.0
          0.0221 -0.01235 0.0
          0.0208 -0.01235 0.0
          0.0195 -0.01235 0.0
          0.0182 -0.01235 0.0
          0.0169 -0.01235 0.0
          0.0156 -0.01235 0.0
          0.0143 -0.01235 0.0
          0.013 -0.01235 0.0
          0.0117 -0.01235 0.0
          0.0104 -0.01235 0.0
          0.0091 -0.01235 0.0
          0.0078 -0.01235 0.0
          0.0065 -0.01235 0.0
          0.0052 -0.01235 0.0
          0.0039 -0.01235 0.0
          0.0026 -0.01235 0.0
          0.0013 -0.01235 0.0
          0 -0.01235 0.0
          0.039 -0.01365 0.0
          0.0377 -0.01365 0.0
          0.0364 -0.01365 0.0
          0.0351 -0.01365 0.0
          0.0338 -0.01365 0.0
          0.0325 -0.01365 0.0
          0.0312 -0.01365 0.0
          0.0299 -0.01365 0.0
          0.0286 -0.01365 0.0
          0.0273 -0.01365 0.0
          0.026 -0.01365 0.0
          0.0247 -0.01365 0.0
          0.0234 -0.01365 0.0
          0.0221 -0.01365 0.0
          0.0208 -0.01365 0.0
          0.0195 -0.01365 0.0
          0.0182 -0.01365 0.0
          0.0169 -0.01365 0.0
          0.0156 -0.01365 0.0
          0.0143 -0.01365 0.0
          0.013 -0.01365 0.0
          0.0117 -0.01365 0.0
          0.0104 -0.01365 0.0
          0.0091 -0.01365 0.0
          0.0078 -0.01365 0.0
          0.0065 -0.01365 0.0
          0.0052 -0.01365 0.0
          0.0039 -0.01365 0.0
          0.0026 -0.01365 0.0
          0.0013 -0.01365 0.0
          0 -0.01365 0.0
          0.039 -0.01495 0.0
          0.0377 -0.01495 0.0
          0.0364 -0.01495 0.0
          0.0351 -0.01495 0.0
          0.0338 -0.01495 0.0
          0.0325 -0.01495 0.0
          0.0312 -0.01495 0.0
          0.0299 -0.01495 0.0
          0.0286 -0.01495 0.0
          0.0273 -0.01495 0.0
          0.026 -0.01495 0.0
          0.0247 -0.01495 0.0