<?xml version="1.0"?>
<VTKFile type="UnstructuredGrid" version="0.1" byte_order="LittleEndian">
  <UnstructuredGrid>
    <Piece NumberOfPoints="961" NumberOfCells="900">
      <PointData Scalars="Temperature">
        <DataArray type="Float32" Name="Temperature" format="ascii">
          46.2759
          46.2759
          46.2759
          46.2759
          46.2759
          46.2759
          46.2759
          46.2759
          46.2759
          46.2759
          46.2759
          46.2759
          46.2759
          46.2759
          46.2759
          46.2759
          46.2759
          46.2759
          46.2759
          46.2759
          46.2759
          46.2759
          46.2759
          46.2759
          46.2759
          46.2759
          46.2759
          46.2759
          46.2759
          46.2759
          46.2759
          46.2759
          46.2759
          46.2759
          46.2759
          46.2759
          46.2759
          46.2759
          46.2759
          46.2759
          46.2759
          46.2759
          46.2759
          46.2759
          46.2759
          46.2759
          46.2759
          46.2759
          46.2759
          46.2759
          46.2759
          46.2759
          46.2759
          46.2759
          46.2759
          46.2759
          46.2759
          46.2759
          46.2759
          46.2759
          46.2759
          46.2759
          46.2759
          46.2759
          46.2759
          46.2759
          46.2759
          46.2759
          46.2759
          46.2759
          46.2759
          46.2759
          46.2759
          46.2759
          46.2759
          46.2759
          46.2759
          46.2759
          46.2759
          46.2759
          46.2759
          46.2759
          46.2759
          46.2759
          46.2759
          46.2759
          46.2759
          46.2759
          46.2759
          46.2759
          46.2759
          46.2759
          46.2759
          46.2759
          46.2759
          46.2759
          46.2759
          70.2886
          70.2908
          70.2912
          70.2902
          46.2759
          46.2759
          70.6352
          70.6365
          70.6365
          70.6352
          46.2759
          46.2759
          70.6728
          70.6741
          70.6741
          70.6728
          46.2759
          46.2759
          70.37
          70.3711
          70.3707
          70.3686
          46.2759
          46.2759
          46.2759
          46.2759
          46.2759
          46.2759
          46.2759
          46.2759
          46.2759
          70.2917
          70.2925
          70.2929
          70.2928
          46.2759
          46.2759
          70.6378
          70.638
          70.638
          70.6378
          46.2759
          46.2759
          70.6754
          70.6756
          70.6756
          70.6754
          46.2759
          46.2759
          70.3726
          70.3727
          70.3724
          70.3717
          46.2759
          46.2759
          46.2759
          46.2759
          46.2759
          46.2759
          46.2759
          46.2759
          46.2759
          70.2947
          70.2954
          70.2957
          70.2957
          46.2759
          46.2759
          70.6403
          70.6404
          70.6404
          70.6403
          46.2759
          46.2759
          70.6779
          70.678
          70.678
          70.6779
          46.2759
          46.2759
          70.3754
          70.3755
          70.3752
          70.3746
          46.2759
          46.2759
          46.2759
          46.2759
          46.2759
          46.2759
          46.2759
          46.2759
          46.2759
          70.2982
          70.2989
          70.2992
          70.2993
          46.2759
          46.2759
          70.6431
          70.6432
          70.6432
          70.6431
          46.2759
          46.2759
          70.6807
          70.6808
          70.6808
          70.6807
          46.2759
          46.2759
          70.3789
          70.3789
          70.3786
          70.378
          46.2759
          46.2759
          46.2759
          46.2759
          46.2759
          46.2759
          46.2759
          46.2759
          46.2759
          70.3024
          70.303
          70.3034
          70.3034
          46.2759
          46.2759
          70.6464
          70.6465
          70.6465
          70.6464
          46.2759
          46.2759
          70.684
          70.6841
          70.6841
          70.684
          46.2759
          46.2759
          70.3829
          70.3828
          70.3826
          70.382
          46.2759
          46.2759
          46.2759
          46.2759
          46.2759
          46.2759
          46.2759
          46.2759
          46.2759
          70.3071
          70.3078
          70.3081
          70.3082
          46.2759
          46.2759
          70.65
          70.6501
          70.6501
          70.65
          46.2759
          46.2759
          70.6877
          70.6877
          70.6877
          70.6876
          46.2759
          46.2759
          70.3874
          70.3874
          70.3871
          70.3866
          46.2759
          46.2759
          46.2759
          46.2759
          46.2759
          46.2759
          46.2759
          46.2759
          46.2759
          70.3125
          70.3131
          70.3135
          70.3135
          46.2759
          46.2759
          70.6541
          70.6542
          70.6542
          70.6541
          46.2759
          46.2759
          70.6917
          70.6918
          70.6918
          70.6917
          46.2759
          46.2759
          70.3926
          70.3925
          70.3923
          70.3917
          46.2759
          46.2759
          46.2759
          46.2759
          46.2759
          46.2759
          46.2759
          46.2759
          46.2759
          70.3184
          70.3191
          70.3194
          70.3195
          46.2759
          46.2759
          70.6585
          70.6586
          70.6586
          70.6585
          46.2759
          46.2759
          70.6961
          70.6962
          70.6962
          70.6961
          46.2759
          46.2759
          70.3983
          70.3982
          70.398
          70.3974
          46.2759
          46.2759
          46.2759
          46.2759
          46.2759
          46.2759
          46.2759
          46.2759
          46.2759
          70.325
          70.3257
          70.326
          70.326
          46.2759
          46.2759
          70.6633
          70.6634
          70.6634
          70.6633
          46.2759
          46.2759
          70.7009
          70.701
          70.701
          70.7009
          46.2759
          46.2759
          70.4045
          70.4045
          70.4042
          70.4037
          46.2759
          46.2759
          46.2759
          46.2759
          46.2759
          46.2759
          46.2759
          46.2759
          46.2759
          70.3322
          70.3328
          70.3332
          70.3332
          46.2759
          46.2759
          70.6685
          70.6686
          70.6686
          70.6685
          46.2759
          46.2759
          70.7061
          70.7062
          70.7062
          70.7061
          46.2759
          46.2759
          70.4113
          70.4113
          70.411
          70.4105
          46.2759
          46.2759
          46.2759
          46.2759
          46.2759
          46.2759
          46.2759
          46.2759
          46.2759
          70.34
          70.3406
          70.341
          70.341
          46.2759
          46.2759
          70.6741
          70.6741
          70.6741
          70.6741
          46.2759
          46.2759
          70.7117
          70.7118
          70.7118
          70.7117
          46.2759
          46.2759
          70.4187
          70.4187
          70.4184
          70.4179
          46.2759
          46.2759
          46.2759
          46.2759
          46.2759
          46.2759
          46.2759
          46.2759
          46.2759
          70.3484
          70.349
          70.3493
          70.3494
          46.2759
          46.2759
          70.68
          70.6801
          70.6801
          70.68
          46.2759
          46.2759
          70.7177
          70.7178
          70.7177
          70.7177
          46.2759
          46.2759
          70.4267
          70.4266
          70.4264
          70.4258
          46.2759
          46.2759
          46.2759
          46.2759
          46.2759
          46.2759
          46.2759
          46.2759
          46.2759
          70.3574
          70.358
          70.3583
          70.3584
          46.2759
          46.2759
          70.6864
          70.6865
          70.6865
          70.6864
          46.2759
          46.2759
          70.724
          70.7241
          70.7241
          70.724
          46.2759
          46.2759
          70.4352
          70.4352
          70.4349
          70.4343
          46.2759
          46.2759
          46.2759
          46.2759
          46.2759
          46.2759
          46.2759
          46.2759
          46.2759
          70.367
          70.3676
          70.3679
          70.368
          46.2759
          46.2759
          70.6931
          70.6932
          70.6932
          70.6931
          46.2759
          46.2759
          70.7308
          70.7308
          70.7308
          70.7308
          46.2759
          46.2759
          70.4442
          70.4442
          70.4439
          70.4434
          46.2759
          46.2759
          46.2759
          46.2759
          46.2759
          46.2759
          46.2759
          46.2759
          46.2759
          70.3772
          70.3778
          70.3781
          70.3782
          46.2759
          46.2759
          70.7002
          70.7003
          70.7003
          70.7002
          46.2759
          46.2759
          70.7379
          70.738
          70.738
          70.7379
          46.2759
          46.2759
          70.4539
          70.4539
          70.4536
          70.453
          46.2759
          46.2759
          46.2759
          46.2759
          46.2759
          46.2759
          46.2759
          46.2759
          46.2759
          70.388
          70.3886
          70.389
          70.389
          46.2759
          46.2759
          70.7077
          70.7078
          70.7078
          70.7077
          46.2759
          46.2759
          70.7454
          70.7455
          70.7455
          70.7454
          46.2759
          46.2759
          70.4641
          70.464
          70.4638
          70.4632
          46.2759
          46.2759
          46.2759
          46.2759
          46.2759
          46.2759
          46.2759
          46.2759
          46.2759
          70.3994
          70.4
          70.4004
          70.4004
          46.2759
          46.2759
          70.7156
          70.7157
          70.7157
          70.7156
          46.2759
          46.2759
          70.7533
          70.7534
          70.7534
          70.7533
          46.2759
          46.2759
          70.4748
          70.4748
          70.4745
          70.474
          46.2759
          46.2759
          46.2759
          46.2759
          46.2759
          46.2759
          46.2759
          46.2759
          46.2759
          70.4114
          70.412
          70.4124
          70.4124
          46.2759
          46.2759
          70.7239
          70.724
          70.724
          70.7239
          46.2759
          46.2759
          70.7616
          70.7617
          70.7617
          70.7616
          46.2759
          46.2759
          70.4861
          70.4861
          70.4858
          70.4853
          46.2759
          46.2759
          46.2759
          46.2759
          46.2759
          46.2759
          46.2759
          46.2759
          46.2759
          70.424
          70.4247
          70.425
          70.4251
          46.2759
          46.2759
          70.7325
          70.7326
          70.7327
          70.7326
          46.2759
          46.2759
          70.7703
          70.7704
          70.7703
          70.7702
          46.2759
          46.2759
          70.498
          70.498
          70.4977
          70.4972
          46.2759
          46.2759
          46.2759
          46.2759
          46.2759
          46.2759
          46.2759
          46.2759
          46.2759
          70.4372
          70.4379
          70.4383
          70.4384
          46.2759
          46.2759
          70.7415
          70.7417
          70.7418
          70.7417
          46.2759
          46.2759
          70.7794
          70.7794
          70.7794
          70.7793
          46.2759
          46.2759
          70.5105
          70.5105
          70.5101
          70.5095
          46.2759
          46.2759
          46.2759
          46.2759
          46.2759
          46.2759
          46.2759
          46.2759
          46.2759
          70.4508
          70.4516
          70.4522
          70.4524
          46.2759
          46.2759
          70.7508
          70.751
          70.7513
          70.7514
          46.2759
          46.2759
          70.789
          70.7889
          70.7887
          70.7886
          46.2759
          46.2759
          70.5237
          70.5236
          70.523
          70.5223
          46.2759
          46.2759
          46.2759
          46.2759
          46.2759
          46.2759
          46.2759
          46.2759
          46.2759
          70.4645
          70.4656
          70.467
          70.4676
          46.2759
          46.2759
          70.7599
          70.7605
          70.7614
          70.7618
          46.2759
          46.2759
          70.7993
          70.799
          70.7983
          70.7979
          46.2759
          46.2759
          70.538
          70.5374
          70.5361
          70.5351
          46.2759
          46.2759
          46.2759
          46.2759
          46.2759
          46.2759
          46.2759
          46.2759
          46.2759
          70.477
          70.4794
          70.4832
          70.4851
          46.2759
          46.2759
          70.768
          70.7697
          70.7726
          70.7742
          46.2759
          46.2759
          70.8109
          70.8099
          70.8079
          70.8067
          46.2759
          46.2759
          70.5546
          70.5526
          70.5489
          70.5467
          46.2759
          46.2759
          46.2759
          46.2759
          46.2759
          46.2759
          46.2759
          46.2759
          46.2759
          70.4852
          70.4902
          70.5033
          70.508
          46.2759
          46.2759
          70.7724
          70.7763
          70.7871
          70.7909
          46.2759
          46.2759
          70.8257
          70.8231
          70.8158
          70.8131
          46.2759
          46.2759
          70.5764
          70.5718
          70.5588
          70.5539
          46.2759
          46.2759
          46.2759
          46.2759
          46.2759
          70.2721
          70.3384
          70.385
          70.4272
          70.4732
          70.4977
          70.5233
          70.5606
          70.6377
          70.6958
          70.7553
          70.7826
          70.804
          70.8273
          70.862
          70.8696
          70.853
          70.8386
          70.8241
          70.8039
          70.755
          70.7018
          70.6274
          70.5909
          70.5655
          70.5407
          70.4944
          70.4535
          70.4115
          70.365
          70.2986
          70.2991
          70.3448
          70.3874
          70.4279
          70.4659
          70.5022
          70.5393
          70.5857
          70.6397
          70.698
          70.7495
          70.7923
          70.8247
          70.8515
          70.8705
          70.878
          70.8729
          70.8585
          70.8368
          70.8038
          70.7593
          70.7049
          70.6523
          70.6064
          70.5693
          70.5328
          70.4947
          70.4543
          70.414
          70.3715
          70.3257
          70.3292
          70.3571
          70.3911
          70.4283
          70.4664
          70.5053
          70.5471
          70.5936
          70.6455
          70.7012
          70.7599
          70.8122
          70.8507
          70.8783
          70.8958
          70.9027
          70.8989
          70.8846
          70.8597
          70.8224
          70.7704
          70.713
          70.6607
          70.6141
          70.5721
          70.5328
          70.4941
          70.4555
          70.4179
          70.3839
          70.3559
          70.3513
          70.3623
          70.3929
          70.4288
          70.4668
          70.5066
          70.5492
          70.596
          70.6474
          70.7034
          70.7672
          70.8254
          70.8658
          70.8939
          70.9112
          70.9181
          70.9144
          70.8999
          70.8741
          70.8352
          70.7781
          70.7161
          70.6634
          70.6162
          70.5733
          70.5331
          70.4941
          70.456
          70.4198
          70.3891
          70.3781
        </DataArray>
      </PointData>
      <CellData>
      </CellData>
      <Points>
        <DataArray type="Float32" NumberOfComponents="3" format="ascii">
          0.039 0.00195 0.0
          0.0377 0.00195 0.0
          0.0364 0.00195 0.0
          0.0351 0.00195 0.0
          0.0338 0.00195 0.0
          0.0325 0.00195 0.0
          0.0312 0.00195 0.0
          0.0299 0.00195 0.0
          0.0286 0.00195 0.0
          0.0273 0.00195 0.0
          0.026 0.00195 0.0
          0.0247 0.00195 0.0
          0.0234 0.00195 0.0
          0.0221 0.00195 0.0
          0.0208 0.00195 0.0
          0.0195 0.00195 0.0
          0.0182 0.00195 0.0
          0.0169 0.00195 0.0
          0.0156 0.00195 0.0
          0.0143 0.00195 0.0
          0.013 0.00195 0.0
          0.0117 0.00195 0.0
          0.0104 0.00195 0.0
          0.0091 0.00195 0.0
          0.0078 0.00195 0.0
          0.0065 0.00195 0.0
          0.0052 0.00195 0.0
          0.0039 0.00195 0.0
          0.0026 0.00195 0.0
          0.0013 0.00195 0.0
          0 0.00195 0.0
          0.039 0.00065 0.0
          0.0377 0.00065 0.0
          0.0364 0.00065 0.0
          0.0351 0.00065 0.0
          0.0338 0.00065 0.0
          0.0325 0.00065 0.0
          0.0312 0.00065 0.0
          0.0299 0.00065 0.0
          0.0286 0.00065 0.0
          0.0273 0.00065 0.0
          0.026 0.00065 0.0
          0.0247 0.00065 0.0
          0.0234 0.00065 0.0
          0.0221 0.00065 0.0
          0.0208 0.00065 0.0
          0.0195 0.00065 0.0
          0.0182 0.00065 0.0
          0.0169 0.00065 0.0
          0.0156 0.00065 0.0
          0.0143 0.00065 0.0
          0.013 0.00065 0.0
          0.0117 0.00065 0.0
          0.0104 0.00065 0.0
          0.0091 0.00065 0.0
          0.0078 0.00065 0.0
          0.0065 0.00065 0.0
          0.0052 0.00065 0.0
          0.0039 0.00065 0.0
          0.0026 0.00065 0.0
          0.0013 0.00065 0.0
          0 0.00065 0.0
          0.039 -0.00065 0.0
          0.0377 -0.00065 0.0
          0.0364 -0.00065 0.0
          0.0351 -0.00065 0.0
          0.0338 -0.00065 0.0
          0.0325 -0.00065 0.0
          0.0312 -0.00065 0.0
          0.0299 -0.00065 0.0
          0.0286 -0.00065 0.0
          0.0273 -0.00065 0.0
          0.026 -0.00065 0.0
          0.0247 -0.00065 0.0
          0.0234 -0.00065 0.0
          0.0221 -0.00065 0.0
          0.0208 -0.00065 0.0
          0.0195 -0.00065 0.0
          0.0182 -0.00065 0.0
          0.0169 -0.00065 0.0
          0.0156 -0.00065 0.0
          0.0143 -0.00065 0.0
          0.013 -0.00065 0.0
          0.0117 -0.00065 0.0
          0.0104 -0.00065 0.0
          0.0091 -0.00065 0.0
          0.0078 -0.00065 0.0
          0.0065 -0.00065 0.0
          0.0052 -0.00065 0.0
          0.0039 -0.00065 0.0
          0.0026 -0.00065 0.0
          0.0013 -0.00065 0.0
          0 -0.00065 0.0
          0.039 -0.00195 0.0
          0.0377 -0.00195 0.0
          0.0364 -0.00195 0.0
          0.0351 -0.00195 0.0
          0.0338 -0.00195 0.0
          0.0325 -0.00195 0.0
          0.0312 -0.00195 0.0
          0.0299 -0.00195 0.0
          0.0286 -0.00195 0.0
          0.0273 -0.00195 0.0
          0.026 -0.00195 0.0
          0.0247 -0.00195 0.0
          0.0234 -0.00195 0.0
          0.0221 -0.00195 0.0
          0.0208 -0.00195 0.0
          0.0195 -0.00195 0.0
          0.0182 -0.00195 0.0
          0.0169 -0.00195 0.0
          0.0156 -0.00195 0.0
          0.0143 -0.00195 0.0
          0.013 -0.00195 0.0
          0.0117 -0.00195 0.0
          0.0104 -0.00195 0.0
          0.0091 -0.00195 0.0
          0.0078 -0.00195 0.0
          0.0065 -0.00195 0.0
          0.0052 -0.00195 0.0
          0.0039 -0.00195 0.0
          0.0026 -0.00195 0.0
          0.0013 -0.00195 0.0
          0 -0.00195 0.0
          0.039 -0.00325 0.0
          0.0377 -0.00325 0.0
          0.0364 -0.00325 0.0
          0.0351 -0.00325 0.0
          0.0338 -0.00325 0.0
          0.0325 -0.00325 0.0
          0.0312 -0.00325 0.0
          0.0299 -0.00325 0.0
          0.0286 -0.00325 0.0
          0.0273 -0.00325 0.0
          0.026 -0.00325 0.0
          0.0247 -0.00325 0.0
          0.0234 -0.00325 0.0
          0.0221 -0.00325 0.0
          0.0208 -0.00325 0.0
          0.0195 -0.00325 0.0
          0.0182 -0.00325 0.0
          0.0169 -0.00325 0.0
          0.0156 -0.00325 0.0
          0.0143 -0.00325 0.0
          0.013 -0.00325 0.0
          0.0117 -0.00325 0.0
          0.0104 -0.00325 0.0
          0.0091 -0.00325 0.0
          0.0078 -0.00325 0.0
          0.0065 -0.00325 0.0
          0.0052 -0.00325 0.0
          0.0039 -0.00325 0.0
          0.0026 -0.00325 0.0
          0.0013 -0.00325 0.0
          0 -0.00325 0.0
          0.039 -0.00455 0.0
          0.0377 -0.00455 0.0
          0.0364 -0.00455 0.0
          0.0351 -0.00455 0.0
          0.0338 -0.00455 0.0
          0.0325 -0.00455 0.0
          0.0312 -0.00455 0.0
          0.0299 -0.00455 0.0
          0.0286 -0.00455 0.0
          0.0273 -0.00455 0.0
          0.026 -0.00455 0.0
          0.0247 -0.00455 0.0
          0.0234 -0.00455 0.0
          0.0221 -0.00455 0.0
          0.0208 -0.00455 0.0
          0.0195 -0.00455 0.0
          0.0182 -0.00455 0.0
          0.0169 -0.00455 0.0
          0.0156 -0.00455 0.0
          0.0143 -0.00455 0.0
          0.013 -0.00455 0.0
          0.0117 -0.00455 0.0
          0.0104 -0.00455 0.0
          0.0091 -0.00455 0.0
          0.0078 -0.00455 0.0
          0.0065 -0.00455 0.0
          0.0052 -0.00455 0.0
          0.0039 -0.00455 0.0
          0.0026 -0.00455 0.0
          0.0013 -0.00455 0.0
          0 -0.00455 0.0
          0.039 -0.00585 0.0
          0.0377 -0.00585 0.0
          0.0364 -0.00585 0.0
          0.0351 -0.00585 0.0
          0.0338 -0.00585 0.0
          0.0325 -0.00585 0.0
          0.0312 -0.00585 0.0
          0.0299 -0.00585 0.0
          0.0286 -0.00585 0.0
          0.0273 -0.00585 0.0
          0.026 -0.00585 0.0
          0.0247 -0.00585 0.0
          0.0234 -0.00585 0.0
          0.0221 -0.00585 0.0
          0.0208 -0.00585 0.0
          0.0195 -0.00585 0.0
          0.0182 -0.00585 0.0
          0.0169 -0.00585 0.0
          0.0156 -0.00585 0.0
          0.0143 -0.00585 0.0
          0.013 -0.00585 0.0
          0.0117 -0.00585 0.0
          0.0104 -0.00585 0.0
          0.0091 -0.00585 0.0
          0.0078 -0.00585 0.0
          0.0065 -0.00585 0.0
          0.0052 -0.00585 0.0
          0.0039 -0.00585 0.0
          0.0026 -0.00585 0.0
          0.0013 -0.00585 0.0
          0 -0.00585 0.0
          0.039 -0.00715 0.0
          0.0377 -0.00715 0.0
          0.0364 -0.00715 0.0
          0.0351 -0.00715 0.0
          0.0338 -0.00715 0.0
          0.0325 -0.00715 0.0
          0.0312 -0.00715 0.0
          0.0299 -0.00715 0.0
          0.0286 -0.00715 0.0
          0.0273 -0.00715 0.0
          0.026 -0.00715 0.0
          0.0247 -0.00715 0.0
          0.0234 -0.00715 0.0
          0.0221 -0.00715 0.0
          0.0208 -0.00715 0.0
          0.0195 -0.00715 0.0
          0.0182 -0.00715 0.0
          0.0169 -0.00715 0.0
          0.0156 -0.00715 0.0
          0.0143 -0.00715 0.0
          0.013 -0.00715 0.0
          0.0117 -0.00715 0.0
          0.0104 -0.00715 0.0
          0.0091 -0.00715 0.0
          0.0078 -0.00715 0.0
          0.0065 -0.00715 0.0
          0.0052 -0.00715 0.0
          0.0039 -0.00715 0.0
          0.0026 -0.00715 0.0
          0.0013 -0.00715 0.0
          0 -0.00715 0.0
          0.039 -0.00845 0.0
          0.0377 -0.00845 0.0
          0.0364 -0.00845 0.0
          0.0351 -0.00845 0.0
          0.0338 -0.00845 0.0
          0.0325 -0.00845 0.0
          0.0312 -0.00845 0.0
          0.0299 -0.00845 0.0
          0.0286 -0.00845 0.0
          0.0273 -0.00845 0.0
          0.026 -0.00845 0.0
          0.0247 -0.00845 0.0
          0.0234 -0.00845 0.0
          0.0221 -0.00845 0.0
          0.0208 -0.00845 0.0
          0.0195 -0.00845 0.0
          0.0182 -0.00845 0.0
          0.0169 -0.00845 0.0
          0.0156 -0.00845 0.0
          0.0143 -0.00845 0.0
          0.013 -0.00845 0.0
          0.0117 -0.00845 0.0
          0.0104 -0.00845 0.0
          0.0091 -0.00845 0.0
          0.0078 -0.00845 0.0
          0.0065 -0.00845 0.0
          0.0052 -0.00845 0.0
          0.0039 -0.00845 0.0
          0.0026 -0.00845 0.0
          0.0013 -0.00845 0.0
          0 -0.00845 0.0
          0.039 -0.00975 0.0
          0.0377 -0.00975 0.0
          0.0364 -0.00975 0.0
          0.0351 -0.00975 0.0
          0.0338 -0.00975 0.0
          0.0325 -0.00975 0.0
          0.0312 -0.00975 0.0
          0.0299 -0.00975 0.0
          0.0286 -0.00975 0.0
          0.0273 -0.00975 0.0
          0.026 -0.00975 0.0
          0.0247 -0.00975 0.0
          0.0234 -0.00975 0.0
          0.0221 -0.00975 0.0
          0.0208 -0.00975 0.0
          0.0195 -0.00975 0.0
          0.0182 -0.00975 0.0
          0.0169 -0.00975 0.0
          0.0156 -0.00975 0.0
          0.0143 -0.00975 0.0
          0.013 -0.00975 0.0
          0.0117 -0.00975 0.0
          0.0104 -0.00975 0.0
          0.0091 -0.00975 0.0
          0.0078 -0.00975 0.0
          0.0065 -0.00975 0.0
          0.0052 -0.00975 0.0
          0.0039 -0.00975 0.0
          0.0026 -0.00975 0.0
          0.0013 -0.00975 0.0
          0 -0.00975 0.0
          0.039 -0.01105 0.0
          0.0377 -0.01105 0.0
          0.0364 -0.01105 0.0
          0.0351 -0.01105 0.0
          0.0338 -0.01105 0.0
          0.0325 -0.01105 0.0
          0.0312 -0.01105 0.0
          0.0299 -0.01105 0.0
          0.0286 -0.01105 0.0
          0.0273 -0.01105 0.0
          0.026 -0.01105 0.0
          0.0247 -0.01105 0.0
          0.0234 -0.01105 0.0
          0.0221 -0.01105 0.0
          0.0208 -0.01105 0.0
          0.0195 -0.01105 0.0
          0.0182 -0.01105 0.0
          0.0169 -0.01105 0.0
          0.0156 -0.01105 0.0
          0.0143 -0.01105 0.0
          0.013 -0.01105 0.0
          0.0117 -0.01105 0.0
          0.0104 -0.01105 0.0
          0.0091 -0.01105 0.0
          0.0078 -0.01105 0.0
          0.0065 -0.01105 0.0
          0.0052 -0.01105 0.0
          0.0039 -0.01105 0.0
          0.0026 -0.01105 0.0
          0.0013 -0.01105 0.0
          0 -0.01105 0.0
          0.039 -0.01235 0.0
          0.0377 -0.01235 0.0
          0.0364 -0.01235 0.0
          0.0351 -0.01235 0.0
          0.0338 -0.01235 0.0
          0.0325 -0.01235 0.0
          0.0312 -0.01235 0.0
          0.0299 -0.01235 0.0
          0.0286 -0.01235 0.0
          0.0273 -0.01235 0.0
          0.026 -0.01235 0.0
          0.0247 -0.01235 0.0
          0.0234 -0.01235 0.0
          0.0221 -0.01235 0.0
          0.0208 -0.01235 0.0
          0.0195 -0.01235 0.0
          0.0182 -0.01235 0.0
          0.0169 -0.01235 0.0
          0.0156 -0.01235 0.0
          0.0143 -0.01235 0.0
          0.013 -0.01235 0.0
          0.0117 -0.01235 0.0
          0.0104 -0.01235 0.0
          0.0091 -0.01235 0.0
          0.0078 -0.01235 0.0
          0.0065 -0.01235 0.0
          0.0052 -0.01235 0.0
          0.0039 -0.01235 0.0
          0.0026 -0.01235 0.0
          0.0013 -0.01235 0.0
          0 -0.01235 0.0
          0.039 -0.01365 0.0
          0.0377 -0.01365 0.0
          0.0364 -0.01365 0.0
          0.0351 -0.01365 0.0
          0.0338 -0.01365 0.0
          0.0325 -0.01365 0.0
          0.0312 -0.01365 0.0
          0.0299 -0.01365 0.0
          0.0286 -0.01365 0.0
          0.0273 -0.01365 0.0
          0.026 -0.01365 0.0
          0.0247 -0.01365 0.0
          0.0234 -0.01365 0.0
          0.0221 -0.01365 0.0
          0.0208 -0.01365 0.0
          0.0195 -0.01365 0.0
          0.0182 -0.01365 0.0
          0.0169 -0.01365 0.0
          0.0156 -0.01365 0.0
          0.0143 -0.01365 0.0
          0.013 -0.01365 0.0
          0.0117 -0.01365 0.0
          0.0104 -0.01365 0.0
          0.0091 -0.01365 0.0
          0.0078 -0.01365 0.0
          0.0065 -0.01365 0.0
          0.0052 -0.01365 0.0
          0.0039 -0.01365 0.0
          0.0026 -0.01365 0.0
          0.0013 -0.01365 0.0
          0 -0.01365 0.0
          0.039 -0.01495 0.0
          0.0377 -0.01495 0.0
          0.0364 -0.01495 0.0
          0.0351 -0.01495 0.0
          0.0338 -0.01495 0.0
          0.0325 -0.01495 0.0
          0.0312 -0.01495 0.0
          0.0299 -0.01495 0.0
          0.0286 -0.01495 0.0
          0.0273 -0.01495 0.0
          0.026 -0.01495 0.0
          0.0247 -0.01495 0.0
          0.0234 -0.01495 0.0