<?xml version="1.0"?>
<VTKFile type="UnstructuredGrid" version="0.1" byte_order="LittleEndian">
  <UnstructuredGrid>
    <Piece NumberOfPoints="961" NumberOfCells="900">
      <PointData Scalars="Temperature">
        <DataArray type="Float32" Name="Temperature" format="ascii">
          21.0323
          22.4228
          23.8633
          25.3013
          26.5092
          27.3029
          27.604
          27.5778
          27.4664
          27.4707
          27.6055
          27.7403
          27.7396
          27.6033
          27.468
          27.4701
          27.609
          27.7481
          27.7512
          27.6198
          27.49
          27.4927
          27.6133
          27.6572
          27.3942
          26.6777
          25.5963
          24.3382
          23.1294
          22.0317
          21.0253
          22.3802
          78.3212
          138.341
          198.599
          250.819
          283.375
          294.732
          291.089
          284.871
          284.944
          291.916
          298.915
          298.887
          291.83
          284.812
          284.899
          292.072
          299.238
          299.358
          292.484
          285.722
          285.937
          292.529
          296.761
          286.841
          257.308
          210.331
          157.459
          106.917
          62.7973
          22.0051
          23.6149
          129.873
          245.39
          383.668
          495.975
          567.198
          578.438
          556.912
          532.75
          532.38
          556.739
          581.235
          581.208
          556.587
          532.049
          532.263
          557.118
          581.94
          582.059
          557.766
          533.798
          534.819
          559.636
          581.927
          572.11
          506.456
          404.448
          281.486
          184.237
          100.376
          22.9097
          24.6394
          172.45
          334.508
          528.719
          879.125
          879.165
          879.174
          879.157
          718.324
          717.423
          875.226
          875.245
          875.245
          875.226
          716.833
          717.148
          876.375
          876.395
          876.395
          876.376
          719.291
          721.112
          883.586
          883.604
          883.596
          883.559
          556.315
          384.889
          248.846
          132.104
          23.6758
          25.384
          203.025
          394.086
          620.743
          879.321
          879.336
          879.344
          879.343
          827.104
          825.786
          875.417
          875.42
          875.42
          875.416
          824.999
          825.383
          876.566
          876.569
          876.569
          876.566
          827.892
          830.304
          883.77
          883.771
          883.764
          883.751
          653.248
          455.847
          296.844
          156.349
          24.2669
          25.8523
          221.56
          426.819
          647.102
          879.794
          879.807
          879.814
          879.815
          861.568
          860.255
          875.903
          875.904
          875.904
          875.902
          859.355
          859.738
          877.05
          877.051
          877.051
          877.05
          862.46
          864.865
          884.233
          884.232
          884.226
          884.215
          683.881
          497.175
          328.144
          173.043
          24.6799
          26.1055
          231.266
          441.147
          658.039
          880.556
          880.568
          880.575
          880.577
          873.001
          871.696
          876.689
          876.689
          876.689
          876.689
          870.766
          871.148
          877.833
          877.834
          877.834
          877.833
          873.926
          876.319
          884.979
          884.978
          884.972
          884.963
          697.99
          517.685
          346.555
          183.476
          24.9431
          26.2299
          235.859
          447.805
          663.209
          881.606
          881.618
          881.625
          881.627
          877.415
          876.122
          877.774
          877.775
          877.774
          877.774
          875.191
          875.571
          878.914
          878.914
          878.914
          878.914
          878.352
          880.728
          886.008
          886.007
          886.001
          885.992
          705.363
          528.526
          356.743
          189.564
          25.0991
          26.29
          238.123
          451.173
          666.121
          882.942
          882.953
          882.96
          882.962
          879.829
          878.552
          879.156
          879.156
          879.156
          879.156
          877.63
          878.009
          880.289
          880.289
          880.289
          880.289
          880.772
          883.125
          887.316
          887.315
          887.309
          887.3
          709.732
          534.601
          362.467
          193.028
          25.1886
          26.3233
          239.389
          453.181
          668.181
          884.559
          884.57
          884.577
          884.579
          881.813
          880.555
          880.83
          880.83
          880.83
          880.83
          879.649
          880.025
          881.956
          881.956
          881.956
          881.956
          882.76
          885.086
          888.901
          888.899
          888.894
          888.884
          712.725
          538.323
          365.857
          195.06
          25.241
          26.3455
          240.256
          454.673
          669.989
          886.454
          886.465
          886.472
          886.474
          883.857
          882.621
          882.792
          882.792
          882.792
          882.792
          881.735
          882.108
          883.91
          883.91
          883.91
          883.91
          884.808
          887.101
          890.757
          890.755
          890.75
          890.741
          715.125
          540.909
          368.069
          196.352
          25.274
          26.3638
          240.988
          456.017
          671.801
          888.622
          888.634
          888.64
          888.642
          886.11
          884.9
          885.039
          885.039
          885.039
          885.039
          884.037
          884.407
          886.146
          886.146
          886.146
          886.146
          887.066
          889.321
          892.88
          892.879
          892.873
          892.864
          717.323
          542.983
          369.719
          197.28
          25.2975
          26.3814
          241.7
          457.373
          673.729
          891.059
          891.07
          891.077
          891.079
          888.616
          887.436
          887.564
          887.564
          887.564
          887.563
          886.598
          886.964
          888.659
          888.66
          888.66
          888.66
          889.576
          891.789
          895.266
          895.264
          895.259
          895.249
          719.521
          544.874
          371.131
          198.047
          25.3167
          26.3996
          242.442
          458.811
          675.819
          893.757
          893.768
          893.775
          893.777
          891.383
          890.236
          890.36
          890.36
          890.36
          890.36
          889.428
          889.789
          891.443
          891.444
          891.444
          891.444
          892.349
          894.514
          897.907
          897.905
          897.9
          897.891
          721.822
          546.754
          372.48
          198.762
          25.3344
          26.4191
          243.236
          460.361
          678.089
          896.71
          896.722
          896.728
          896.731
          894.41
          893.299
          893.422
          893.422
          893.422
          893.422
          892.523
          892.88
          894.491
          894.491
          894.492
          894.492
          895.382
          897.494
          900.797
          900.796
          900.79
          900.781
          724.286
          548.723
          373.867
          199.489
          25.3523
          26.4402
          244.096
          462.038
          680.549
          899.912
          899.923
          899.93
          899.932
          897.691
          896.619
          896.742
          896.742
          896.742
          896.742
          895.878
          896.23
          897.796
          897.796
          897.796
          897.796
          898.669
          900.724
          903.93
          903.928
          903.923
          903.914
          726.951
          550.848
          375.363
          200.271
          25.3717
          26.4629
          245.032
          463.857
          683.204
          903.353
          903.364
          903.371
          903.373
          901.217
          900.188
          900.311
          900.311
          900.311
          900.31
          899.484
          899.831
          901.348
          901.348
          901.348
          901.348
          902.202
          904.194
          907.296
          907.295
          907.289
          907.28
          729.858
          553.202
          377.04
          201.156
          25.3933
          26.4894
          246.064
          465.846
          686.071
          907.025
          907.037
          907.044
          907.046
          904.981
          903.998
          904.12
          904.12
          904.12
          904.12
          903.334
          903.674
          905.139
          905.139
          905.139
          905.139
          905.972
          907.898
          910.888
          910.887
          910.881
          910.872
          733.07
          555.891
          379.008
          202.212
          25.4207
          26.5144
          247.242
          468.068
          689.191
          910.92
          910.932
          910.939
          910.941
          908.973
          908.038
          908.16
          908.16
          908.16
          908.16
          907.417
          907.751
          909.16
          909.161
          909.161
          909.161
          909.971
          911.825
          914.697
          914.695
          914.689
          914.68
          736.698
          559.106
          381.461
          203.562
          25.4504
          26.5669
          248.665
          470.674
          692.665
          915.027
          915.039
          915.046
          915.048
          913.182
          912.3
          912.422
          912.422
          912.422
          912.422
          911.723
          912.051
          913.402
          913.402
          913.402
          913.402
          914.187
          915.967
          918.711
          918.71
          918.704
          918.695
          740.962
          563.206
          384.764
          205.43
          25.5146
          26.5491
          250.612
          474
          696.732
          919.337
          919.349
          919.355
          919.358
          917.6
          916.772
          916.894
          916.894
          916.894
          916.894
          916.243
          916.563
          917.852
          917.852
          917.852
          917.852
          918.612
          920.311
          922.923
          922.921
          922.916
          922.907
          746.273
          568.877
          389.606
          208.285
          25.5199
          26.8961
          253.532
          478.871
          701.936
          923.838
          923.85
          923.856
          923.858
          922.217
          921.446
          921.565
          921.565
          921.565
          921.565
          920.967
          921.279
          922.5
          922.5
          922.501
          922.501
          923.236
          924.851
          927.319
          927.318
          927.313
          927.305
          753.419
          577.411
          397.361
          212.861
          25.9101
          25.9606
          259.215
          486.957
          709.572
          928.52
          928.531
          928.537
          928.539
          927.026
          926.314
          926.425
          926.425
          926.425
          926.425
          925.888
          926.192
          927.335
          927.335
          927.336
          927.336
          928.051
          929.577
          931.89
          931.889
          931.886
          931.878
          763.839
          591.304
          410.48
          221.33
          25.0397
          30.574
          268.75
          502.941
          722.329
          933.372
          933.382
          933.386
          933.387
          932.031
          931.382
          931.46
          931.46
          931.46
          931.46
          931.01
          931.305
          932.342
          932.344
          932.346
          932.347
          933.062
          934.493
          936.62
          936.621
          936.622
          936.617
          780.115
          614.943
          434.614
          235.203
          29.7798
          13.8746
          297.167
          534.02
          746.906
          938.384
          938.39
          938.389
          938.387
          937.271
          936.69
          936.659
          936.658
          936.658
          936.657
          936.374
          936.657
          937.509
          937.513
          937.52
          937.524
          938.308
          939.635
          941.493
          941.5
          941.513
          941.515
          805.98
          656.965
          477.879
          269.922
          13.1579
          84.9726
          332.83
          610.056
          792.488
          943.551
          943.546
          943.53
          943.519
          942.899
          942.393
          942.009
          942.008
          942.006
          942.004
          942.137
          942.403
          942.813
          942.825
          942.848
          942.861
          943.944
          945.145
          946.477
          946.505
          946.553
          946.577
          845.151
          727.912
          570.652
          313.879
          84.766
          -189.741
          558.43
          754.534
          865.333
          948.875
          948.852
          948.779
          948.754
          949.43
          949.029
          947.498
          947.496
          947.488
          947.486
          948.837
          949.067
          948.222
          948.251
          948.335
          948.365
          950.509
          951.501
          951.516
          951.582
          951.768
          951.833
          898.653
          833.554
          735.891
          550.241
          -190.922
          956.489
          959.196
          959.928
          959.294
          955.553
          953.733
          953.59
          955.053
          958.002
          957.789
          954.267
          952.536
          952.522
          954.22
          957.671
          957.817
          954.733
          953.22
          953.382
          955.293
          959.197
          959.78
          957.385
          956.21
          956.572
          958.641
          962.937
          964.21
          964.361
          963.393
          960.608
          958.219
          959.971
          960.606
          960.047
          958.925
          957.894
          957.694
          958.265
          958.833
          958.631
          957.703
          956.833
          956.814
          957.64
          958.518
          958.659
          958.04
          957.447
          957.679
          958.796
          960.02
          960.58
          960.368
          960.136
          960.648
          962.047
          963.629
          964.776
          964.916
          964.098
          962.282
          960.803
          961.719
          962.072
          961.902
          961.385
          960.891
          960.68
          960.744
          960.82
          960.658
          960.271
          959.934
          959.914
          960.209
          960.552
          960.674
          960.57
          960.506
          960.759
          961.344
          962.011
          962.48
          962.726
          962.986
          963.537
          964.406
          965.356
          966.016
          966.139
          965.686
          964.73
          962.358
          962.463
          962.735
          962.644
          962.297
          961.929
          961.721
          961.674
          961.644
          961.492
          961.229
          961.012
          960.992
          961.168
          961.391
          961.508
          961.518
          961.571
          961.825
          962.291
          962.826
          963.272
          963.612
          963.981
          964.53
          965.274
          966.039
          966.572
          966.679
          966.359
          966.228
        </DataArray>
      </PointData>
      <CellData>
      </CellData>
      <Points>
        <DataArray type="Float32" NumberOfComponents="3" format="ascii">
          0.1 0.005 0.0
          0.0966667 0.005 0.0
          0.0933333 0.005 0.0
          0.09 0.005 0.0
          0.0866667 0.005 0.0
          0.0833333 0.005 0.0
          0.08 0.005 0.0
          0.0766667 0.005 0.0
          0.0733333 0.005 0.0
          0.07 0.005 0.0
          0.0666667 0.005 0.0
          0.0633333 0.005 0.0
          0.06 0.005 0.0
          0.0566667 0.005 0.0
          0.0533333 0.005 0.0
          0.05 0.005 0.0
          0.0466667 0.005 0.0
          0.0433333 0.005 0.0
          0.04 0.005 0.0
          0.0366667 0.005 0.0
          0.0333333 0.005 0.0
          0.03 0.005 0.0
          0.0266667 0.005 0.0
          0.0233333 0.005 0.0
          0.02 0.005 0.0
          0.0166667 0.005 0.0
          0.0133333 0.005 0.0
          0.01 0.005 0.0
          0.00666667 0.005 0.0
          0.00333333 0.005 0.0
          0 0.005 0.0
          0.1 0.00166667 0.0
          0.0966667 0.00166667 0.0
          0.0933333 0.00166667 0.0
          0.09 0.00166667 0.0
          0.0866667 0.00166667 0.0
          0.0833333 0.00166667 0.0
          0.08 0.00166667 0.0
          0.0766667 0.00166667 0.0
          0.0733333 0.00166667 0.0
          0.07 0.00166667 0.0
          0.0666667 0.00166667 0.0
          0.0633333 0.00166667 0.0
          0.06 0.00166667 0.0
          0.0566667 0.00166667 0.0
          0.0533333 0.00166667 0.0
          0.05 0.00166667 0.0
          0.0466667 0.00166667 0.0
          0.0433333 0.00166667 0.0
          0.04 0.00166667 0.0
          0.0366667 0.00166667 0.0
          0.0333333 0.00166667 0.0
          0.03 0.00166667 0.0
          0.0266667 0.00166667 0.0
          0.0233333 0.00166667 0.0
          0.02 0.00166667 0.0
          0.0166667 0.00166667 0.0
          0.0133333 0.00166667 0.0
          0.01 0.00166667 0.0
          0.00666667 0.00166667 0.0
          0.00333333 0.00166667 0.0
          0 0.00166667 0.0
          0.1 -0.00166667 0.0
          0.0966667 -0.00166667 0.0
          0.0933333 -0.00166667 0.0
          0.09 -0.00166667 0.0
          0.0866667 -0.00166667 0.0
          0.0833333 -0.00166667 0.0
          0.08 -0.00166667 0.0
          0.0766667 -0.00166667 0.0
          0.0733333 -0.00166667 0.0
          0.07 -0.00166667 0.0
          0.0666667 -0.00166667 0.0
          0.0633333 -0.00166667 0.0
          0.06 -0.00166667 0.0
          0.0566667 -0.00166667 0.0
          0.0533333 -0.00166667 0.0
          0.05 -0.00166667 0.0
          0.0466667 -0.00166667 0.0
          0.0433333 -0.00166667 0.0
          0.04 -0.00166667 0.0
          0.0366667 -0.00166667 0.0
          0.0333333 -0.00166667 0.0
          0.03 -0.00166667 0.0
          0.0266667 -0.00166667 0.0
          0.0233333 -0.00166667 0.0
          0.02 -0.00166667 0.0
          0.0166667 -0.00166667 0.0
          0.0133333 -0.00166667 0.0
          0.01 -0.00166667 0.0
          0.00666667 -0.00166667 0.0
          0.00333333 -0.00166667 0.0
          0 -0.00166667 0.0
          0.1 -0.005 0.0
          0.0966667 -0.005 0.0
          0.0933333 -0.005 0.0
          0.09 -0.005 0.0
          0.0866667 -0.005 0.0
          0.0833333 -0.005 0.0
          0.08 -0.005 0.0
          0.0766667 -0.005 0.0
          0.0733333 -0.005 0.0
          0.07 -0.005 0.0
          0.0666667 -0.005 0.0
          0.0633333 -0.005 0.0
          0.06 -0.005 0.0
          0.0566667 -0.005 0.0
          0.0533333 -0.005 0.0
          0.05 -0.005 0.0
          0.0466667 -0.005 0.0
          0.0433333 -0.005 0.0
          0.04 -0.005 0.0
          0.0366667 -0.005 0.0
          0.0333333 -0.005 0.0
          0.03 -0.005 0.0
          0.0266667 -0.005 0.0
          0.0233333 -0.005 0.0
          0.02 -0.005 0.0
          0.0166667 -0.005 0.0
          0.0133333 -0.005 0.0
          0.01 -0.005 0.0
          0.00666667 -0.005 0.0
          0.00333333 -0.005 0.0
          0 -0.005 0.0
          0.1 -0.00833333 0.0
          0.0966667 -0.00833333 0.0
          0.0933333 -0.00833333 0.0
          0.09 -0.00833333 0.0
          0.0866667 -0.00833333 0.0
          0.0833333 -0.00833333 0.0
          0.08 -0.00833333 0.0
          0.0766667 -0.00833333 0.0
          0.0733333 -0.00833333 0.0
          0.07 -0.00833333 0.0
          0.0666667 -0.00833333 0.0
          0.0633333 -0.00833333 0.0
          0.06 -0.00833333 0.0
          0.0566667 -0.00833333 0.0
          0.0533333 -0.00833333 0.0
          0.05 -0.00833333 0.0
          0.0466667 -0.00833333 0.0
          0.0433333 -0.00833333 0.0
          0.04 -0.00833333 0.0
          0.0366667 -0.00833333 0.0
          0.0333333 -0.00833333 0.0
          0.03 -0.00833333 0.0
          0.0266667 -0.00833333 0.0
          0.0233333 -0.00833333 0.0
          0.02 -0.00833333 0.0
          0.0166667 -0.00833333 0.0
          0.0133333 -0.00833333 0.0
          0.01 -0.00833333 0.0
          0.00666667 -0.00833333 0.0
          0.00333333 -0.00833333 0.0
          0 -0.00833333 0.0
          0.1 -0.0116667 0.0
          0.0966667 -0.0116667 0.0
          0.0933333 -0.0116667 0.0
          0.09 -0.0116667 0.0
          0.0866667 -0.0116667 0.0
          0.0833333 -0.0116667 0.0
          0.08 -0.0116667 0.0
          0.0766667 -0.0116667 0.0
          0.0733333 -0.0116667 0.0
          0.07 -0.0116667 0.0
          0.0666667 -0.0116667 0.0
          0.0633333 -0.0116667 0.0
          0.06 -0.0116667 0.0
          0.0566667 -0.0116667 0.0
          0.0533333 -0.0116667 0.0
          0.05 -0.0116667 0.0
          0.0466667 -0.0116667 0.0
          0.0433333 -0.0116667 0.0
          0.04 -0.0116667 0.0
          0.0366667 -0.0116667 0.0
          0.0333333 -0.0116667 0.0
          0.03 -0.0116667 0.0
          0.0266667 -0.0116667 0.0
          0.0233333 -0.0116667 0.0
          0.02 -0.0116667 0.0
          0.0166667 -0.0116667 0.0
          0.0133333 -0.0116667 0.0
          0.01 -0.0116667 0.0
          0.00666667 -0.0116667 0.0
          0.00333333 -0.0116667 0.0
          0 -0.0116667 0.0
          0.1 -0.015 0.0
          0.0966667 -0.015 0.0
          0.0933333 -0.015 0.0
          0.09 -0.015 0.0
          0.0866667 -0.015 0.0
          0.0833333 -0.015 0.0
          0.08 -0.015 0.0
          0.0766667 -0.015 0.0
          0.0733333 -0.015 0.0
          0.07 -0.015 0.0
          0.0666667 -0.015 0.0
          0.0633333 -0.015 0.0
          0.06 -0.015 0.0
          0.0566667 -0.015 0.0
          0.0533333 -0.015 0.0
          0.05 -0.015 0.0
          0.0466667 -0.015 0.0
          0.0433333 -0.015 0.0
          0.04 -0.015 0.0
          0.0366667 -0.015 0.0
          0.0333333 -0.015 0.0
          0.03 -0.015 0.0
          0.0266667 -0.015 0.0
          0.0233333 -0.015 0.0
          0.02 -0.015 0.0
          0.0166667 -0.015 0.0
          0.0133333 -0.015 0.0
          0.01 -0.015 0.0
          0.00666667 -0.015 0.0
          0.00333333 -0.015 0.0
          0 -0.015 0.0
          0.1 -0.0183333 0.0
          0.0966667 -0.0183333 0.0
          0.0933333 -0.0183333 0.0
          0.09 -0.0183333 0.0
          0.0866667 -0.0183333 0.0
          0.0833333 -0.0183333 0.0
          0.08 -0.0183333 0.0
          0.0766667 -0.0183333 0.0
          0.0733333 -0.0183333 0.0
          0.07 -0.0183333 0.0
          0.0666667 -0.0183333 0.0
          0.0633333 -0.0183333 0.0
          0.06 -0.0183333 0.0
          0.0566667 -0.0183333 0.0
          0.0533333 -0.0183333 0.0
          0.05 -0.0183333 0.0
          0.0466667 -0.0183333 0.0
          0.0433333 -0.0183333 0.0
          0.04 -0.0183333 0.0
          0.0366667 -0.0183333 0.0
          0.0333333 -0.0183333 0.0
          0.03 -0.0183333 0.0
          0.0266667 -0.0183333 0.0
          0.0233333 -0.0183333 0.0
          0.02 -0.0183333 0.0
          0.0166667 -0.0183333 0.0
          0.0133333 -0.0183333 0.0
          0.01 -0.0183333 0.0
          0.00666667 -0.0183333 0.0
          0.00333333 -0.0183333 0.0
          0 -0.0183333 0.0
          0.1 -0.0216667 0.0
          0.0966667 -0.0216667 0.0
          0.0933333 -0.0216667 0.0
          0.09 -0.0216667 0.0
          0.0866667 -0.0216667 0.0
          0.0833333 -0.0216667 0.0
          0.08 -0.0216667 0.0
          0.0766667 -0.0216667 0.0
          0.0733333 -0.0216667 0.0
          0.07 -0.0216667 0.0
          0.0666667 -0.0216667 0.0
          0.0633333 -0.0216667 0.0
          0.06 -0.0216667 0.0
          0.0566667 -0.0216667 0.0
          0.0533333 -0.0216667 0.0
          0.05 -0.0216667 0.0
          0.0466667 -0.0216667 0.0
          0.0433333 -0.0216667 0.0
          0.04 -0.0216667 0.0
          0.0366667 -0.0216667 0.0
          0.0333333 -0.0216667 0.0
          0.03 -0.0216667 0.0
          0.0266667 -0.0216667 0.0
          0.0233333 -0.0216667 0.0
          0.02 -0.0216667 0.0
          0.0166667 -0.0216667 0.0
          0.0133333 -0.0216667 0.0
          0.01 -0.0216667 0.0
          0.00666667 -0.0216667 0.0
          0.00333333 -0.0216667 0.0
          0 -0.0216667 0.0
          0.1 -0.025 0.0
          0.0966667 -0.025 0.0
          0.0933333 -0.025 0.0
          0.09 -0.025 0.0
          0.0866667 -0.025 0.0
          0.0833333 -0.025 0.0
          0.08 -0.025 0.0
          0.0766667 -0.025 0.0
          0.0733333 -0.025 0.0
          0.07 -0.025 0.0
          0.0666667 -0.025 0.0
          0.0633333 -0.025 0.0
          0.06 -0.025 0.0
          0.0566667 -0.025 0.0
          0.0533333 -0.025 0.0
          0.05 -0.025 0.0
          0.0466667 -0.025 0.0
          0.0433333 -0.025 0.0
          0.04 -0.025 0.0
          0.0366667 -0.025 0.0
          0.0333333 -0.025 0.0
          0.03 -0.025 0.0
          0.0266667 -0.025 0.0
          0.0233333 -0.025 0.0
          0.02 -0.025 0.0
          0.0166667 -0.025 0.0
          0.0133333 -0.025 0.0
          0.01 -0.025 0.0
          0.00666667 -0.025 0.0
          0.00333333 -0.025 0.0
          0 -0.025 0.0
          0.1 -0.0283333 0.0
          0.0966667 -0.0283333 0.0
          0.0933333 -0.0283333 0.0
          0.09 -0.0283333 0.0
          0.0866667 -0.0283333 0.0
          0.0833333 -0.0283333 0.0
          0.08 -0.0283333 0.0
          0.0766667 -0.0283333 0.0
          0.0733333 -0.0283333 0.0
          0.07 -0.0283333 0.0
          0.0666667 -0.0283333 0.0
          0.0633333 -0.0283333 0.0
          0.06 -0.0283333 0.0
          0.0566667 -0.0283333 0.0
          0.0533333 -0.0283333 0.0
          0.05 -0.0283333 0.0
          0.0466667 -0.0283333 0.0
          0.0433333 -0.0283333 0.0
          0.04 -0.0283333 0.0
          0.0366667 -0.0283333 0.0
          0.0333333 -0.0283333 0.0
          0.03 -0.0283333 0.0
          0.0266667 -0.0283333 0.0
          0.0233333 -0.0283333 0.0
          0.02 -0.0283333 0.0
          0.0166667 -0.0283333 0.0
          0.0133333 -0.0283333 0.0
          0.01 -0.0283333 0.0
          0.00666667 -0.0283333 0.0
          0.00333333 -0.0283333 0.0
          0 -0.0283333 0.0
          0.1 -0.0316667 0.0
          0.0966667 -0.0316667 0.0
          0.0933333 -0.0316667 0.0
          0.09 -0.0316667 0.0
          0.0866667 -0.0316667 0.0
          0.0833333 -0.0316667 0.0
          0.08 -0.0316667 0.0
          0.0766667 -0.0316667 0.0
          0.0733333 -0.0316667 0.0
          0.07 -0.0316667 0.0
          0.0666667 -0.0316667 0.0
          0.0633333 -0.0316667 0.0
          0.06 -0.0316667 0.0
          0.0566667 -0.0316667 0.0
          0.0533333 -0.0316667 0.0
          0.05 -0.0316667 0.0
          0.0466667 -0.0316667 0.0
          0.0433333 -0.0316667 0.0
          0.04 -0.0316667 0.0
          0.0366667 -0.0316667 0.0
          0.0333333 -0.0316667 0.0
          0.03 -0.0316667 0.0
          0.0266667 -0.0316667 0.0
          0.0233333 -0.0316667 0.0
          0.02 -0.0316667 0.0
          0.0166667 -0.0316667 0.0
          0.0133333 -0.0316667 0.0
          0.01 -0.0316667 0.0
          0.00666667 -0.0316667 0.0
          0.00333333 -0.0316667 0.0
          0 -0.0316667 0.0
          0.1 -0.035 0.0
          0.0966667 -0.035 0.0
          0.0933333 -0.035 0.0
          0.09 -0.035 0.0
          0.0866667 -0.035 0.0
          0.0833333 -0.035 0.0
          0.08 -0.035 0.0
          0.0766667 -0.035 0.0
          0.0733333 -0.035 0.0
          0.07 -0.035 0.0
          0.0666667 -0.035 0.0
          0.0633333 -0.035 0.0
          0.06 -0.035 0.0
          0.0566667 -0.035 0.0
          0.0533333 -0.035 0.0
          0.05 -0.035 0.0
          0.0466667 -0.035 0.0