<?xml version="1.0"?>
<VTKFile type="UnstructuredGrid" version="0.1" byte_order="LittleEndian">
  <UnstructuredGrid>
    <Piece NumberOfPoints="961" NumberOfCells="900">
      <PointData Scalars="Temperature">
        <DataArray type="Float32" Name="Temperature" format="ascii">
          43.756
          43.756
          43.756
          43.756
          43.756
          43.756
          43.756
          43.756
          43.756
          43.756
          43.756
          43.756
          43.756
          43.756
          43.756
          43.756
          43.756
          43.756
          43.756
          43.756
          43.756
          43.756
          43.756
          43.756
          43.756
          43.756
          43.756
          43.756
          43.756
          43.756
          43.756
          43.756
          43.756
          43.756
          43.756
          43.756
          43.756
          43.756
          43.756
          43.756
          43.756
          43.756
          43.756
          43.756
          43.756
          43.756
          43.756
          43.756
          43.756
          43.756
          43.756
          43.756
          43.756
          43.756
          43.756
          43.756
          43.756
          43.756
          43.756
          43.756
          43.756
          43.756
          43.756
          43.756
          43.756
          43.756
          43.756
          43.756
          43.756
          43.756
          43.756
          43.756
          43.756
          43.756
          43.756
          43.756
          43.756
          43.756
          43.756
          43.756
          43.756
          43.756
          43.756
          43.756
          43.756
          43.756
          43.756
          43.756
          43.756
          43.756
          43.756
          43.756
          43.756
          43.756
          43.756
          43.756
          43.756
          65.3582
          65.3601
          65.3606
          65.3596
          43.756
          43.756
          65.6863
          65.6874
          65.6874
          65.6863
          43.756
          43.756
          65.7235
          65.7246
          65.7246
          65.7235
          43.756
          43.756
          65.4367
          65.4377
          65.4373
          65.4355
          43.756
          43.756
          43.756
          43.756
          43.756
          43.756
          43.756
          43.756
          43.756
          65.361
          65.3618
          65.3621
          65.3621
          43.756
          43.756
          65.6887
          65.6889
          65.6889
          65.6887
          43.756
          43.756
          65.7258
          65.726
          65.726
          65.7258
          43.756
          43.756
          65.4392
          65.4393
          65.4389
          65.4383
          43.756
          43.756
          43.756
          43.756
          43.756
          43.756
          43.756
          43.756
          43.756
          65.3639
          65.3645
          65.3648
          65.3648
          43.756
          43.756
          65.6911
          65.6912
          65.6912
          65.6911
          43.756
          43.756
          65.7282
          65.7283
          65.7283
          65.7282
          43.756
          43.756
          65.4419
          65.4419
          65.4416
          65.4411
          43.756
          43.756
          43.756
          43.756
          43.756
          43.756
          43.756
          43.756
          43.756
          65.3673
          65.3679
          65.3683
          65.3683
          43.756
          43.756
          65.6939
          65.694
          65.694
          65.694
          43.756
          43.756
          65.7311
          65.7312
          65.7312
          65.7311
          43.756
          43.756
          65.4452
          65.4452
          65.445
          65.4445
          43.756
          43.756
          43.756
          43.756
          43.756
          43.756
          43.756
          43.756
          43.756
          65.3715
          65.372
          65.3724
          65.3724
          43.756
          43.756
          65.6973
          65.6973
          65.6974
          65.6973
          43.756
          43.756
          65.7344
          65.7345
          65.7345
          65.7344
          43.756
          43.756
          65.4492
          65.4492
          65.4489
          65.4484
          43.756
          43.756
          43.756
          43.756
          43.756
          43.756
          43.756
          43.756
          43.756
          65.3762
          65.3768
          65.3771
          65.3772
          43.756
          43.756
          65.701
          65.7011
          65.7011
          65.7011
          43.756
          43.756
          65.7382
          65.7383
          65.7383
          65.7382
          43.756
          43.756
          65.4538
          65.4538
          65.4535
          65.4531
          43.756
          43.756
          43.756
          43.756
          43.756
          43.756
          43.756
          43.756
          43.756
          65.3817
          65.3822
          65.3825
          65.3826
          43.756
          43.756
          65.7053
          65.7054
          65.7054
          65.7053
          43.756
          43.756
          65.7424
          65.7425
          65.7425
          65.7424
          43.756
          43.756
          65.459
          65.459
          65.4588
          65.4583
          43.756
          43.756
          43.756
          43.756
          43.756
          43.756
          43.756
          43.756
          43.756
          65.3877
          65.3883
          65.3886
          65.3887
          43.756
          43.756
          65.71
          65.7101
          65.7101
          65.71
          43.756
          43.756
          65.7472
          65.7472
          65.7472
          65.7471
          43.756
          43.756
          65.4649
          65.4649
          65.4646
          65.4641
          43.756
          43.756
          43.756
          43.756
          43.756
          43.756
          43.756
          43.756
          43.756
          65.3945
          65.3951
          65.3954
          65.3954
          43.756
          43.756
          65.7151
          65.7152
          65.7152
          65.7152
          43.756
          43.756
          65.7523
          65.7524
          65.7524
          65.7523
          43.756
          43.756
          65.4713
          65.4713
          65.4711
          65.4706
          43.756
          43.756
          43.756
          43.756
          43.756
          43.756
          43.756
          43.756
          43.756
          65.4019
          65.4025
          65.4028
          65.4028
          43.756
          43.756
          65.7208
          65.7208
          65.7208
          65.7208
          43.756
          43.756
          65.7579
          65.758
          65.758
          65.7579
          43.756
          43.756
          65.4784
          65.4784
          65.4782
          65.4777
          43.756
          43.756
          43.756
          43.756
          43.756
          43.756
          43.756
          43.756
          43.756
          65.4099
          65.4105
          65.4108
          65.4108
          43.756
          43.756
          65.7268
          65.7269
          65.7269
          65.7268
          43.756
          43.756
          65.764
          65.7641
          65.7641
          65.764
          43.756
          43.756
          65.4861
          65.4861
          65.4858
          65.4854
          43.756
          43.756
          43.756
          43.756
          43.756
          43.756
          43.756
          43.756
          43.756
          65.4186
          65.4192
          65.4195
          65.4196
          43.756
          43.756
          65.7334
          65.7334
          65.7334
          65.7334
          43.756
          43.756
          65.7705
          65.7706
          65.7706
          65.7705
          43.756
          43.756
          65.4944
          65.4944
          65.4941
          65.4937
          43.756
          43.756
          43.756
          43.756
          43.756
          43.756
          43.756
          43.756
          43.756
          65.428
          65.4286
          65.4289
          65.4289
          43.756
          43.756
          65.7403
          65.7404
          65.7404
          65.7404
          43.756
          43.756
          65.7775
          65.7776
          65.7776
          65.7775
          43.756
          43.756
          65.5033
          65.5033
          65.5031
          65.5026
          43.756
          43.756
          43.756
          43.756
          43.756
          43.756
          43.756
          43.756
          43.756
          65.438
          65.4386
          65.4389
          65.4389
          43.756
          43.756
          65.7478
          65.7479
          65.7479
          65.7478
          43.756
          43.756
          65.785
          65.7851
          65.7851
          65.785
          43.756
          43.756
          65.5129
          65.5129
          65.5126
          65.5121
          43.756
          43.756
          43.756
          43.756
          43.756
          43.756
          43.756
          43.756
          43.756
          65.4487
          65.4493
          65.4496
          65.4496
          43.756
          43.756
          65.7557
          65.7558
          65.7558
          65.7557
          43.756
          43.756
          65.7929
          65.793
          65.793
          65.7929
          43.756
          43.756
          65.523
          65.523
          65.5228
          65.5223
          43.756
          43.756
          43.756
          43.756
          43.756
          43.756
          43.756
          43.756
          43.756
          65.46
          65.4606
          65.4609
          65.4609
          43.756
          43.756
          65.7641
          65.7641
          65.7641
          65.7641
          43.756
          43.756
          65.8013
          65.8013
          65.8013
          65.8013
          43.756
          43.756
          65.5338
          65.5338
          65.5335
          65.5331
          43.756
          43.756
          43.756
          43.756
          43.756
          43.756
          43.756
          43.756
          43.756
          65.472
          65.4726
          65.4729
          65.4729
          43.756
          43.756
          65.7729
          65.7729
          65.773
          65.7729
          43.756
          43.756
          65.8101
          65.8102
          65.8102
          65.8101
          43.756
          43.756
          65.5452
          65.5452
          65.5449
          65.5444
          43.756
          43.756
          43.756
          43.756
          43.756
          43.756
          43.756
          43.756
          43.756
          65.4846
          65.4852
          65.4855
          65.4855
          43.756
          43.756
          65.7821
          65.7822
          65.7822
          65.7822
          43.756
          43.756
          65.8194
          65.8194
          65.8194
          65.8194
          43.756
          43.756
          65.5572
          65.5572
          65.5569
          65.5564
          43.756
          43.756
          43.756
          43.756
          43.756
          43.756
          43.756
          43.756
          43.756
          65.4979
          65.4985
          65.4988
          65.4989
          43.756
          43.756
          65.7919
          65.7919
          65.792
          65.7919
          43.756
          43.756
          65.8291
          65.8292
          65.8292
          65.8291
          43.756
          43.756
          65.5698
          65.5698
          65.5695
          65.569
          43.756
          43.756
          43.756
          43.756
          43.756
          43.756
          43.756
          43.756
          43.756
          65.5118
          65.5124
          65.5128
          65.5129
          43.756
          43.756
          65.802
          65.8021
          65.8022
          65.8022
          43.756
          43.756
          65.8394
          65.8394
          65.8394
          65.8392
          43.756
          43.756
          65.5831
          65.5831
          65.5827
          65.5822
          43.756
          43.756
          43.756
          43.756
          43.756
          43.756
          43.756
          43.756
          43.756
          65.5262
          65.5269
          65.5275
          65.5277
          43.756
          43.756
          65.8124
          65.8126
          65.8129
          65.813
          43.756
          43.756
          65.8502
          65.8501
          65.8499
          65.8498
          43.756
          43.756
          65.5972
          65.597
          65.5964
          65.5959
          43.756
          43.756
          43.756
          43.756
          43.756
          43.756
          43.756
          43.756
          43.756
          65.5407
          65.5417
          65.5431
          65.5436
          43.756
          43.756
          65.8229
          65.8234
          65.8244
          65.8248
          43.756
          43.756
          65.8617
          65.8615
          65.8608
          65.8605
          43.756
          43.756
          65.6123
          65.6118
          65.6105
          65.6096
          43.756
          43.756
          43.756
          43.756
          43.756
          43.756
          43.756
          43.756
          43.756
          65.5542
          65.5564
          65.56
          65.5618
          43.756
          43.756
          65.8324
          65.834
          65.8369
          65.8384
          43.756
          43.756
          65.8747
          65.8737
          65.8717
          65.8706
          43.756
          43.756
          65.6297
          65.6278
          65.6244
          65.6222
          43.756
          43.756
          43.756
          43.756
          43.756
          43.756
          43.756
          43.756
          43.756
          65.5638
          65.5684
          65.5808
          65.5852
          43.756
          43.756
          65.8384
          65.8422
          65.8527
          65.8564
          43.756
          43.756
          65.8908
          65.8883
          65.8812
          65.8786
          43.756
          43.756
          65.6521
          65.6477
          65.6355
          65.6309
          43.756
          43.756
          43.756
          43.756
          43.756
          65.3739
          65.4337
          65.4758
          65.5139
          65.555
          65.5772
          65.6012
          65.6371
          65.7118
          65.7675
          65.824
          65.8499
          65.8707
          65.8939
          65.9289
          65.9364
          65.9194
          65.9049
          65.8909
          65.8719
          65.826
          65.7748
          65.7027
          65.6674
          65.6435
          65.621
          65.5795
          65.5424
          65.5044
          65.4624
          65.4025
          65.3982
          65.4395
          65.478
          65.5147
          65.5492
          65.5826
          65.6176
          65.6619
          65.7137
          65.7698
          65.8194
          65.8607
          65.8923
          65.9187
          65.9375
          65.945
          65.9398
          65.9256
          65.9047
          65.8731
          65.8303
          65.7779
          65.7273
          65.6834
          65.6484
          65.6147
          65.5798
          65.5432
          65.5067
          65.4682
          65.4269
          65.4254
          65.4506
          65.4813
          65.5152
          65.5501
          65.5863
          65.6256
          65.6699
          65.7196
          65.7733
          65.8303
          65.8812
          65.9188
          65.9457
          65.9629
          65.9698
          65.9661
          65.9523
          65.9281
          65.8921
          65.8417
          65.7861
          65.7358
          65.6913
          65.6517
          65.6151
          65.5795
          65.5443
          65.5102
          65.4794
          65.4541
          65.4453
          65.4552
          65.483
          65.5157
          65.5507
          65.5877
          65.6278
          65.6723
          65.7215
          65.7756
          65.8377
          65.8945
          65.9339
          65.9615
          65.9785
          65.9853
          65.9817
          65.9677
          65.9427
          65.905
          65.8495
          65.7892
          65.7385
          65.6935
          65.653
          65.6155
          65.5796
          65.5448
          65.5119
          65.484
          65.4741
        </DataArray>
      </PointData>
      <CellData>
      </CellData>
      <Points>
        <DataArray type="Float32" NumberOfComponents="3" format="ascii">
          0.039 0.00195 0.0
          0.0377 0.00195 0.0
          0.0364 0.00195 0.0
          0.0351 0.00195 0.0
          0.0338 0.00195 0.0
          0.0325 0.00195 0.0
          0.0312 0.00195 0.0
          0.0299 0.00195 0.0
          0.0286 0.00195 0.0
          0.0273 0.00195 0.0
          0.026 0.00195 0.0
          0.0247 0.00195 0.0
          0.0234 0.00195 0.0
          0.0221 0.00195 0.0
          0.0208 0.00195 0.0
          0.0195 0.00195 0.0
          0.0182 0.00195 0.0
          0.0169 0.00195 0.0
          0.0156 0.00195 0.0
          0.0143 0.00195 0.0
          0.013 0.00195 0.0
          0.0117 0.00195 0.0
          0.0104 0.00195 0.0
          0.0091 0.00195 0.0
          0.0078 0.00195 0.0
          0.0065 0.00195 0.0
          0.0052 0.00195 0.0
          0.0039 0.00195 0.0
          0.0026 0.00195 0.0
          0.0013 0.00195 0.0
          0 0.00195 0.0
          0.039 0.00065 0.0
          0.0377 0.00065 0.0
          0.0364 0.00065 0.0
          0.0351 0.00065 0.0
          0.0338 0.00065 0.0
          0.0325 0.00065 0.0
          0.0312 0.00065 0.0
          0.0299 0.00065 0.0
          0.0286 0.00065 0.0
          0.0273 0.00065 0.0
          0.026 0.00065 0.0
          0.0247 0.00065 0.0
          0.0234 0.00065 0.0
          0.0221 0.00065 0.0
          0.0208 0.00065 0.0
          0.0195 0.00065 0.0
          0.0182 0.00065 0.0
          0.0169 0.00065 0.0
          0.0156 0.00065 0.0
          0.0143 0.00065 0.0
          0.013 0.00065 0.0
          0.0117 0.00065 0.0
          0.0104 0.00065 0.0
          0.0091 0.00065 0.0
          0.0078 0.00065 0.0
          0.0065 0.00065 0.0
          0.0052 0.00065 0.0
          0.0039 0.00065 0.0
          0.0026 0.00065 0.0
          0.0013 0.00065 0.0
          0 0.00065 0.0
          0.039 -0.00065 0.0
          0.0377 -0.00065 0.0
          0.0364 -0.00065 0.0
          0.0351 -0.00065 0.0
          0.0338 -0.00065 0.0
          0.0325 -0.00065 0.0
          0.0312 -0.00065 0.0
          0.0299 -0.00065 0.0
          0.0286 -0.00065 0.0
          0.0273 -0.00065 0.0
          0.026 -0.00065 0.0
          0.0247 -0.00065 0.0
          0.0234 -0.00065 0.0
          0.0221 -0.00065 0.0
          0.0208 -0.00065 0.0
          0.0195 -0.00065 0.0
          0.0182 -0.00065 0.0
          0.0169 -0.00065 0.0
          0.0156 -0.00065 0.0
          0.0143 -0.00065 0.0
          0.013 -0.00065 0.0
          0.0117 -0.00065 0.0
          0.0104 -0.00065 0.0
          0.0091 -0.00065 0.0
          0.0078 -0.00065 0.0
          0.0065 -0.00065 0.0
          0.0052 -0.00065 0.0
          0.0039 -0.00065 0.0
          0.0026 -0.00065 0.0
          0.0013 -0.00065 0.0
          0 -0.00065 0.0
          0.039 -0.00195 0.0
          0.0377 -0.00195 0.0
          0.0364 -0.00195 0.0
          0.0351 -0.00195 0.0
          0.0338 -0.00195 0.0
          0.0325 -0.00195 0.0
          0.0312 -0.00195 0.0
          0.0299 -0.00195 0.0
          0.0286 -0.00195 0.0
          0.0273 -0.00195 0.0
          0.026 -0.00195 0.0
          0.0247 -0.00195 0.0
          0.0234 -0.00195 0.0
          0.0221 -0.00195 0.0
          0.0208 -0.00195 0.0
          0.0195 -0.00195 0.0
          0.0182 -0.00195 0.0
          0.0169 -0.00195 0.0
          0.0156 -0.00195 0.0
          0.0143 -0.00195 0.0
          0.013 -0.00195 0.0
          0.0117 -0.00195 0.0
          0.0104 -0.00195 0.0
          0.0091 -0.00195 0.0
          0.0078 -0.00195 0.0
          0.0065 -0.00195 0.0
          0.0052 -0.00195 0.0
          0.0039 -0.00195 0.0
          0.0026 -0.00195 0.0
          0.0013 -0.00195 0.0
          0 -0.00195 0.0
          0.039 -0.00325 0.0
          0.0377 -0.00325 0.0
          0.0364 -0.00325 0.0
          0.0351 -0.00325 0.0
          0.0338 -0.00325 0.0
          0.0325 -0.00325 0.0
          0.0312 -0.00325 0.0
          0.0299 -0.00325 0.0
          0.0286 -0.00325 0.0
          0.0273 -0.00325 0.0
          0.026 -0.00325 0.0
          0.0247 -0.00325 0.0
          0.0234 -0.00325 0.0
          0.0221 -0.00325 0.0
          0.0208 -0.00325 0.0
          0.0195 -0.00325 0.0
          0.0182 -0.00325 0.0
          0.0169 -0.00325 0.0
          0.0156 -0.00325 0.0
          0.0143 -0.00325 0.0
          0.013 -0.00325 0.0
          0.0117 -0.00325 0.0
          0.0104 -0.00325 0.0
          0.0091 -0.00325 0.0
          0.0078 -0.00325 0.0
          0.0065 -0.00325 0.0
          0.0052 -0.00325 0.0
          0.0039 -0.00325 0.0
          0.0026 -0.00325 0.0
          0.0013 -0.00325 0.0
          0 -0.00325 0.0
          0.039 -0.00455 0.0
          0.0377 -0.00455 0.0
          0.0364 -0.00455 0.0
          0.0351 -0.00455 0.0
          0.0338 -0.00455 0.0
          0.0325 -0.00455 0.0
          0.0312 -0.00455 0.0
          0.0299 -0.00455 0.0
          0.0286 -0.00455 0.0
          0.0273 -0.00455 0.0
          0.026 -0.00455 0.0
          0.0247 -0.00455 0.0
          0.0234 -0.00455 0.0
          0.0221 -0.00455 0.0
          0.0208 -0.00455 0.0
          0.0195 -0.00455 0.0
          0.0182 -0.00455 0.0
          0.0169 -0.00455 0.0
          0.0156 -0.00455 0.0
          0.0143 -0.00455 0.0
          0.013 -0.00455 0.0
          0.0117 -0.00455 0.0
          0.0104 -0.00455 0.0
          0.0091 -0.00455 0.0
          0.0078 -0.00455 0.0
          0.0065 -0.00455 0.0
          0.0052 -0.00455 0.0
          0.0039 -0.00455 0.0
          0.0026 -0.00455 0.0
          0.0013 -0.00455 0.0
          0 -0.00455 0.0
          0.039 -0.00585 0.0
          0.0377 -0.00585 0.0
          0.0364 -0.00585 0.0
          0.0351 -0.00585 0.0
          0.0338 -0.00585 0.0
          0.0325 -0.00585 0.0
          0.0312 -0.00585 0.0
          0.0299 -0.00585 0.0
          0.0286 -0.00585 0.0
          0.0273 -0.00585 0.0
          0.026 -0.00585 0.0
          0.0247 -0.00585 0.0
          0.0234 -0.00585 0.0
          0.0221 -0.00585 0.0
          0.0208 -0.00585 0.0
          0.0195 -0.00585 0.0
          0.0182 -0.00585 0.0
          0.0169 -0.00585 0.0
          0.0156 -0.00585 0.0
          0.0143 -0.00585 0.0
          0.013 -0.00585 0.0
          0.0117 -0.00585 0.0
          0.0104 -0.00585 0.0
          0.0091 -0.00585 0.0
          0.0078 -0.00585 0.0
          0.0065 -0.00585 0.0
          0.0052 -0.00585 0.0
          0.0039 -0.00585 0.0
          0.0026 -0.00585 0.0
          0.0013 -0.00585 0.0
          0 -0.00585 0.0
          0.039 -0.00715 0.0
          0.0377 -0.00715 0.0
          0.0364 -0.00715 0.0
          0.0351 -0.00715 0.0
          0.0338 -0.00715 0.0
          0.0325 -0.00715 0.0
          0.0312 -0.00715 0.0
          0.0299 -0.00715 0.0
          0.0286 -0.00715 0.0
          0.0273 -0.00715 0.0
          0.026 -0.00715 0.0
          0.0247 -0.00715 0.0
          0.0234 -0.00715 0.0
          0.0221 -0.00715 0.0
          0.0208 -0.00715 0.0
          0.0195 -0.00715 0.0
          0.0182 -0.00715 0.0
          0.0169 -0.00715 0.0
          0.0156 -0.00715 0.0
          0.0143 -0.00715 0.0
          0.013 -0.00715 0.0
          0.0117 -0.00715 0.0
          0.0104 -0.00715 0.0
          0.0091 -0.00715 0.0
          0.0078 -0.00715 0.0
          0.0065 -0.00715 0.0
          0.0052 -0.00715 0.0
          0.0039 -0.00715 0.0
          0.0026 -0.00715 0.0
          0.0013 -0.00715 0.0
          0 -0.00715 0.0
          0.039 -0.00845 0.0
          0.0377 -0.00845 0.0
          0.0364 -0.00845 0.0
          0.0351 -0.00845 0.0
          0.0338 -0.00845 0.0
          0.0325 -0.00845 0.0
          0.0312 -0.00845 0.0
          0.0299 -0.00845 0.0
          0.0286 -0.00845 0.0
          0.0273 -0.00845 0.0
          0.026 -0.00845 0.0
          0.0247 -0.00845 0.0
          0.0234 -0.00845 0.0
          0.0221 -0.00845 0.0
          0.0208 -0.00845 0.0
          0.0195 -0.00845 0.0
          0.0182 -0.00845 0.0
          0.0169 -0.00845 0.0
          0.0156 -0.00845 0.0
          0.0143 -0.00845 0.0
          0.013 -0.00845 0.0
          0.0117 -0.00845 0.0
          0.0104 -0.00845 0.0
          0.0091 -0.00845 0.0
          0.0078 -0.00845 0.0
          0.0065 -0.00845 0.0
          0.0052 -0.00845 0.0
          0.0039 -0.00845 0.0
          0.0026 -0.00845 0.0
          0.0013 -0.00845 0.0
          0 -0.00845 0.0
          0.039 -0.00975 0.0
          0.0377 -0.00975 0.0
          0.0364 -0.00975 0.0
          0.0351 -0.00975 0.0
          0.0338 -0.00975 0.0
          0.0325 -0.00975 0.0
          0.0312 -0.00975 0.0
          0.0299 -0.00975 0.0
          0.0286 -0.00975 0.0
          0.0273 -0.00975 0.0
          0.026 -0.00975 0.0
          0.0247 -0.00975 0.0
          0.0234 -0.00975 0.0
          0.0221 -0.00975 0.0
          0.0208 -0.00975 0.0
          0.0195 -0.00975 0.0
          0.0182 -0.00975 0.0
          0.0169 -0.00975 0.0
          0.0156 -0.00975 0.0
          0.0143 -0.00975 0.0
          0.013 -0.00975 0.0
          0.0117 -0.00975 0.0
          0.0104 -0.00975 0.0
          0.0091 -0.00975 0.0
          0.0078 -0.00975 0.0
          0.0065 -0.00975 0.0
          0.0052 -0.00975 0.0
          0.0039 -0.00975 0.0
          0.0026 -0.00975 0.0
          0.0013 -0.00975 0.0
          0 -0.00975 0.0
          0.039 -0.01105 0.0
          0.0377 -0.01105 0.0
          0.0364 -0.01105 0.0
          0.0351 -0.01105 0.0
          0.0338 -0.01105 0.0
          0.0325 -0.01105 0.0
          0.0312 -0.01105 0.0
          0.0299 -0.01105 0.0
          0.0286 -0.01105 0.0
          0.0273 -0.01105 0.0
          0.026 -0.01105 0.0
          0.0247 -0.01105 0.0
          0.0234 -0.01105 0.0
          0.0221 -0.01105 0.0
          0.0208 -0.01105 0.0
          0.0195 -0.01105 0.0
          0.0182 -0.01105 0.0
          0.0169 -0.01105 0.0
          0.0156 -0.01105 0.0
          0.0143 -0.01105 0.0
          0.013 -0.01105 0.0
          0.0117 -0.01105 0.0
          0.0104 -0.01105 0.0
          0.0091 -0.01105 0.0
          0.0078 -0.01105 0.0
          0.0065 -0.01105 0.0
          0.0052 -0.01105 0.0
          0.0039 -0.01105 0.0
          0.0026 -0.01105 0.0
          0.0013 -0.01105 0.0
          0 -0.01105 0.0
          0.039 -0.01235 0.0
          0.0377 -0.01235 0.0
          0.0364 -0.01235 0.0
          0.0351 -0.01235 0.0
          0.0338 -0.01235 0.0
          0.0325 -0.01235 0.0
          0.0312 -0.01235 0.0
          0.0299 -0.01235 0.0
          0.0286 -0.01235 0.0
          0.0273 -0.01235 0.0
          0.026 -0.01235 0.0
          0.0247 -0.01235 0.0
          0.0234 -0.01235 0.0
          0.0221 -0.01235 0.0
          0.0208 -0.01235 0.0
          0.0195 -0.01235 0.0
          0.0182 -0.01235 0.0
          0.0169 -0.01235 0.0
          0.0156 -0.01235 0.0
          0.0143 -0.01235 0.0
          0.013 -0.01235 0.0
          0.0117 -0.01235 0.0
          0.0104 -0.01235 0.0
          0.0091 -0.01235 0.0
          0.0078 -0.01235 0.0
          0.0065 -0.01235 0.0
          0.0052 -0.01235 0.0
          0.0039 -0.01235 0.0
          0.0026 -0.01235 0.0
          0.0013 -0.01235 0.0
          0 -0.01235 0.0
          0.039 -0.01365 0.0
          0.0377 -0.01365 0.0
          0.0364 -0.01365 0.0
          0.0351 -0.01365 0.0
          0.0338 -0.01365 0.0
          0.0325 -0.01365 0.0
          0.0312 -0.01365 0.0
          0.0299 -0.01365 0.0
          0.0286 -0.01365 0.0
          0.0273 -0.01365 0.0
          0.026 -0.01365 0.0
          0.0247 -0.01365 0.0
          0.0234 -0.01365 0.0
          0.0221 -0.01365 0.0
          0.0208 -0.01365 0.0
          0.0195 -0.01365 0.0
          0.0182 -0.01365 0.0
          0.0169 -0.01365 0.0
          0.0156 -0.01365 0.0
          0.0143 -0.01365 0.0
          0.013 -0.01365 0.0
          0.0117 -0.01365 0.0
          0.0104 -0.01365 0.0
          0.0091 -0.01365 0.0
          0.0078 -0.01365 0.0
          0.0065 -0.01365 0.0
          0.0052 -0.01365 0.0
          0.0039 -0.01365 0.0
          0.0026 -0.01365 0.0
          0.0013 -0.01365 0.0
          0 -0.01365 0.0
          0.039 -0.01495 0.0
          0.0377 -0.01495 0.0
          0.0364 -0.01495 0.0
          0.0351 -0.01495 0.0
          0.0338 -0.01495 0.0
          0.0325 -0.01495 0.0
          0.0312 -0.01495 0.0
          0.0299 -0.01495 0.0
          0.0286 -0.01495 0.0
          0.0273 -0.01495 0.0
          0.026 -0.01495 0.0
          0.0247 -0.01495 0.0
          0.0234 -0.01495 0.0
          0.0221 -0.01495 0.0
          0.0208 -0.01495 0.0
          0.0195 -0.01495 0.0
          0.0182 -0.01495 0.0
          0.0169 -0.01495 0.0
          0.0156 -0.01495 0.0
          0.0143 -0.01495 0.0
          0.013 -0.01495 0.0
          0.0117 -0.01495 0.0
          0.0104 -0.01495 0.0
          0.0091 -0.01495 0.0
          0.0078 -0.01495 0.0
          0.0065 -0.01495 0.0
          0.0052 -0.01495 0.0
          0.0039 -0.01495 0.0