<?xml version="1.0"?>
<VTKFile type="UnstructuredGrid" version="0.1" byte_order="LittleEndian">
  <UnstructuredGrid>
    <Piece NumberOfPoints="961" NumberOfCells="900">
      <PointData Scalars="Temperature">
        <DataArray type="Float32" Name="Temperature" format="ascii">
          21.0335
          22.4749
          23.9677
          25.4574
          26.7084
          27.5306
          27.8435
          27.8186
          27.7063
          27.7142
          27.8564
          27.9976
          27.9976
          27.8567
          27.7164
          27.7182
          27.8616
          28.0049
          28.007
          27.8687
          27.7309
          27.7294
          27.8503
          27.8929
          27.6196
          26.8782
          25.7596
          24.4578
          23.2063
          22.0692
          21.0262
          22.4308
          80.4203
          142.614
          205.028
          259.1
          292.817
          304.616
          300.937
          294.637
          294.854
          302.185
          309.494
          309.493
          302.192
          294.921
          294.996
          302.401
          309.795
          309.875
          302.675
          295.528
          295.567
          302.214
          306.482
          296.175
          265.623
          217.038
          162.337
          110.019
          64.3165
          22.0417
          23.7106
          133.851
          253.535
          396.692
          512.933
          586.637
          598.316
          576.234
          551.523
          551.494
          576.927
          602.392
          602.392
          576.918
          551.509
          551.694
          577.375
          603.021
          603.101
          577.812
          552.719
          553.316
          578.615
          601.434
          591.233
          523.371
          417.919
          290.77
          190.118
          103.256
          22.9792
          24.7723
          177.965
          345.841
          546.859
          909.191
          909.231
          909.241
          909.223
          743.744
          743.334
          907.06
          907.081
          907.081
          907.06
          743.191
          743.462
          908.049
          908.07
          908.07
          908.049
          744.944
          746.149
          913.029
          913.047
          913.039
          913.001
          575.02
          397.806
          257.03
          136.124
          23.7729
          25.5434
          209.626
          407.515
          642.061
          909.35
          909.365
          909.373
          909.373
          856.311
          855.583
          907.213
          907.216
          907.216
          907.213
          855.293
          855.623
          908.201
          908.204
          908.204
          908.201
          857.396
          859.063
          913.176
          913.177
          913.17
          913.156
          675.225
          471.218
          306.712
          161.226
          24.3849
          26.0278
          228.793
          441.348
          669.259
          909.708
          909.721
          909.728
          909.73
          891.884
          891.16
          907.581
          907.582
          907.582
          907.581
          890.785
          891.114
          908.567
          908.568
          908.568
          908.567
          893.055
          894.718
          913.525
          913.524
          913.518
          913.507
          706.825
          513.922
          339.074
          178.493
          24.8122
          26.2887
          238.793
          456.081
          680.424
          910.279
          910.292
          910.299
          910.301
          903.509
          902.791
          908.17
          908.17
          908.17
          908.17
          902.394
          902.722
          909.153
          909.153
          909.153
          909.153
          904.708
          906.36
          914.082
          914.081
          914.075
          914.065
          721.261
          535.032
          358.056
          189.256
          25.0838
          26.4157
          243.474
          462.825
          685.549
          911.062
          911.074
          911.081
          911.083
          907.772
          907.063
          908.978
          908.979
          908.979
          908.978
          906.665
          906.992
          909.957
          909.957
          909.957
          909.957
          908.979
          910.618
          914.845
          914.844
          914.838
          914.828
          728.655
          546.078
          368.488
          195.502
          25.2439
          26.4755
          245.719
          466.115
          688.27
          912.054
          912.066
          912.073
          912.075
          909.874
          909.176
          910.005
          910.005
          910.005
          910.005
          908.785
          909.11
          910.978
          910.979
          910.979
          910.979
          911.083
          912.704
          915.813
          915.811
          915.806
          915.796
          732.868
          552.136
          374.26
          199.011
          25.3347
          26.507
          246.906
          467.952
          690.043
          913.254
          913.265
          913.272
          913.275
          911.443
          910.76
          911.247
          911.247
          911.247
          911.247
          910.379
          910.702
          912.214
          912.214
          912.214
          912.214
          912.652
          914.251
          916.983
          916.981
          916.975
          916.966
          735.586
          555.702
          377.577
          201.018
          25.3865
          26.5264
          247.658
          469.21
          691.489
          914.658
          914.669
          914.676
          914.679
          912.987
          912.321
          912.702
          912.702
          912.702
          912.702
          911.955
          912.275
          913.66
          913.661
          913.661
          913.661
          914.197
          915.77
          918.351
          918.349
          918.344
          918.334
          737.621
          558.037
          379.638
          202.239
          25.4179
          26.5412
          248.248
          470.272
          692.878
          916.263
          916.274
          916.281
          916.283
          914.665
          914.018
          914.366
          914.366
          914.366
          914.366
          913.669
          913.986
          915.315
          915.315
          915.315
          915.315
          915.874
          917.417
          919.915
          919.913
          919.908
          919.898
          739.38
          559.793
          381.081
          203.065
          25.4389
          26.5548
          248.795
          471.305
          694.324
          918.065
          918.076
          918.083
          918.085
          916.521
          915.897
          916.234
          916.234
          916.234
          916.234
          915.567
          915.88
          917.173
          917.173
          917.173
          917.173
          917.731
          919.239
          921.671
          921.669
          921.663
          921.654
          741.073
          561.306
          382.243
          203.706
          25.455
          26.5686
          249.354
          472.381
          695.879
          920.059
          920.071
          920.078
          920.08
          918.568
          917.969
          918.302
          918.302
          918.302
          918.302
          917.659
          917.969
          919.23
          919.23
          919.23
          919.23
          919.777
          921.247
          923.614
          923.612
          923.606
          923.597
          742.809
          562.76
          383.306
          204.276
          25.4692
          26.5831
          249.946
          473.534
          697.562
          922.242
          922.253
          922.26
          922.263
          920.805
          920.233
          920.566
          920.566
          920.566
          920.566
          919.947
          920.253
          921.48
          921.48
          921.481
          921.481
          922.014
          923.442
          925.739
          925.737
          925.732
          925.722
          744.65
          564.256
          384.375
          204.841
          25.4832
          26.5988
          250.586
          474.779
          699.383
          924.606
          924.618
          924.625
          924.627
          923.229
          922.686
          923.019
          923.019
          923.019
          923.019
          922.426
          922.726
          923.92
          923.92
          923.92
          923.92
          924.437
          925.819
          928.041
          928.04
          928.034
          928.025
          746.639
          565.867
          385.523
          205.447
          25.4982
          26.6158
          251.286
          476.135
          701.352
          927.148
          927.16
          927.167
          927.169
          925.833
          925.322
          925.656
          925.656
          925.656
          925.656
          925.089
          925.385
          926.541
          926.541
          926.541
          926.541
          927.04
          928.373
          930.515
          930.514
          930.508
          930.498
          748.819
          567.667
          386.827
          206.142
          25.5152
          26.6361
          252.066
          477.628
          703.487
          929.86
          929.871
          929.878
          929.881
          928.612
          928.136
          928.47
          928.47
          928.47
          928.47
          927.931
          928.222
          929.339
          929.339
          929.339
          929.339
          929.818
          931.098
          933.154
          933.152
          933.147
          933.137
          751.253
          569.765
          388.396
          206.994
          25.5376
          26.6545
          252.977
          479.326
          705.831
          932.735
          932.747
          932.754
          932.756
          931.559
          931.119
          931.453
          931.453
          931.453
          931.453
          930.945
          931.23
          932.305
          932.305
          932.305
          932.305
          932.763
          933.987
          935.952
          935.95
          935.944
          935.935
          754.059
          572.354
          390.426
          208.131
          25.562
          26.7004
          254.12
          481.38
          708.486
          935.767
          935.779
          935.786
          935.788
          934.667
          934.265
          934.6
          934.6
          934.6
          934.6
          934.124
          934.402
          935.433
          935.433
          935.433
          935.433
          935.869
          937.033
          938.901
          938.899
          938.894
          938.884
          757.457
          575.797
          393.288
          209.774
          25.6209
          26.6749
          255.775
          484.131
          711.698
          938.948
          938.96
          938.967
          938.97
          937.928
          937.566
          937.901
          937.901
          937.901
          937.901
          937.459
          937.731
          938.714
          938.714
          938.714
          938.714
          939.127
          940.228
          941.994
          941.992
          941.987
          941.978
          761.863
          580.785
          397.672
          212.398
          25.6201
          27.0168
          258.395
          488.409
          716.013
          942.271
          942.283
          942.29
          942.292
          941.336
          941.016
          941.349
          941.349
          941.349
          941.349
          940.944
          941.209
          942.141
          942.141
          942.141
          942.141
          942.532
          943.566
          945.223
          945.222
          945.216
          945.207
          768.071
          588.617
          404.961
          216.738
          26.0065
          26.0654
          263.784
          495.896
          722.738
          945.727
          945.739
          945.745
          945.747
          944.886
          944.609
          944.935
          944.935
          944.935
          944.935
          944.575
          944.832
          945.705
          945.705
          945.706
          945.706
          946.077
          947.042
          948.58
          948.579
          948.575
          948.566
          777.527
          601.8
          417.617
          224.981
          25.123
          30.7072
          273.031
          511.305
          734.579
          949.308
          949.319
          949.325
          949.327
          948.581
          948.35
          948.65
          948.65
          948.65
          948.65
          948.354
          948.603
          949.396
          949.397
          949.398
          949.399
          949.768
          950.659
          952.055
          952.055
          952.053
          952.046
          792.825
          624.742
          441.319
          238.641
          29.8884
          13.8625
          301.28
          541.873
          758.274
          953.004
          953.014
          953.02
          953.022
          952.454
          952.27
          952.484
          952.485
          952.486
          952.486
          952.313
          952.552
          953.204
          953.207
          953.211
          953.214
          953.633
          954.444
          955.637
          955.639
          955.644
          955.641
          817.705
          666.114
          484.22
          273.254
          13.1424
          85.5255
          336.769
          617.658
          803.044
          956.807
          956.815
          956.821
          956.822
          956.622
          956.485
          956.427
          956.429
          956.432
          956.434
          956.57
          956.795
          957.115
          957.123
          957.137
          957.145
          957.788
          958.509
          959.307
          959.319
          959.341
          959.349
          855.868
          736.479
          576.868
          317.112
          85.2384
          -191.429
          563.635
          762.242
          875.068
          960.705
          960.711
          960.717
          960.72
          961.481
          961.394
          960.466
          960.471
          960.483
          960.488
          961.531
          961.723
          961.106
          961.124
          961.176
          961.194
          962.634
          963.217
          963.035
          963.066
          963.153
          963.183
          908.215
          841.554
          742.33
          554.634
          -192.378
          964.075
          966.9
          967.941
          967.86
          965.473
          964.293
          964.303
          965.504
          967.893
          967.875
          965.407
          964.184
          964.208
          965.492
          968.082
          968.205
          965.922
          964.793
          964.893
          966.266
          969.052
          969.379
          967.454
          966.494
          966.665
          968.048
          970.892
          971.512
          971.239
          970.025
          967.143
          965.717
          967.573
          968.493
          968.444
          967.904
          967.364
          967.383
          967.958
          968.523
          968.508
          967.926
          967.358
          967.394
          968.041
          968.716
          968.834
          968.376
          967.924
          968.067
          968.84
          969.669
          969.982
          969.714
          969.421
          969.66
          970.502
          971.422
          971.96
          971.702
          970.647
          968.742
          968.084
          969.089
          969.682
          969.869
          969.756
          969.611
          969.636
          969.838
          970.031
          970.029
          969.84
          969.665
          969.704
          969.961
          970.239
          970.341
          970.263
          970.2
          970.355
          970.737
          971.159
          971.416
          971.491
          971.559
          971.814
          972.267
          972.734
          972.942
          972.713
          972.044
          971.01
          969.55
          969.731
          970.22
          970.444
          970.448
          970.395
          970.423
          970.543
          970.655
          970.656
          970.556
          970.469
          970.509
          970.678
          970.867
          970.965
          970.971
          970.994
          971.149
          971.444
          971.77
          972.014
          972.16
          972.306
          972.559
          972.92
          973.257
          973.381
          973.162
          972.635
          972.433
        </DataArray>
      </PointData>
      <CellData>
      </CellData>
      <Points>
        <DataArray type="Float32" NumberOfComponents="3" format="ascii">
          0.1 0.005 0.0
          0.0966667 0.005 0.0
          0.0933333 0.005 0.0
          0.09 0.005 0.0
          0.0866667 0.005 0.0
          0.0833333 0.005 0.0
          0.08 0.005 0.0
          0.0766667 0.005 0.0
          0.0733333 0.005 0.0
          0.07 0.005 0.0
          0.0666667 0.005 0.0
          0.0633333 0.005 0.0
          0.06 0.005 0.0
          0.0566667 0.005 0.0
          0.0533333 0.005 0.0
          0.05 0.005 0.0
          0.0466667 0.005 0.0
          0.0433333 0.005 0.0
          0.04 0.005 0.0
          0.0366667 0.005 0.0
          0.0333333 0.005 0.0
          0.03 0.005 0.0
          0.0266667 0.005 0.0
          0.0233333 0.005 0.0
          0.02 0.005 0.0
          0.0166667 0.005 0.0
          0.0133333 0.005 0.0
          0.01 0.005 0.0
          0.00666667 0.005 0.0
          0.00333333 0.005 0.0
          0 0.005 0.0
          0.1 0.00166667 0.0
          0.0966667 0.00166667 0.0
          0.0933333 0.00166667 0.0
          0.09 0.00166667 0.0
          0.0866667 0.00166667 0.0
          0.0833333 0.00166667 0.0
          0.08 0.00166667 0.0
          0.0766667 0.00166667 0.0
          0.0733333 0.00166667 0.0
          0.07 0.00166667 0.0
          0.0666667 0.00166667 0.0
          0.0633333 0.00166667 0.0
          0.06 0.00166667 0.0
          0.0566667 0.00166667 0.0
          0.0533333 0.00166667 0.0
          0.05 0.00166667 0.0
          0.0466667 0.00166667 0.0
          0.0433333 0.00166667 0.0
          0.04 0.00166667 0.0
          0.0366667 0.00166667 0.0
          0.0333333 0.00166667 0.0
          0.03 0.00166667 0.0
          0.0266667 0.00166667 0.0
          0.0233333 0.00166667 0.0
          0.02 0.00166667 0.0
          0.0166667 0.00166667 0.0
          0.0133333 0.00166667 0.0
          0.01 0.00166667 0.0
          0.00666667 0.00166667 0.0
          0.00333333 0.00166667 0.0
          0 0.00166667 0.0
          0.1 -0.00166667 0.0
          0.0966667 -0.00166667 0.0
          0.0933333 -0.00166667 0.0
          0.09 -0.00166667 0.0
          0.0866667 -0.00166667 0.0
          0.0833333 -0.00166667 0.0
          0.08 -0.00166667 0.0
          0.0766667 -0.00166667 0.0
          0.0733333 -0.00166667 0.0
          0.07 -0.00166667 0.0
          0.0666667 -0.00166667 0.0
          0.0633333 -0.00166667 0.0
          0.06 -0.00166667 0.0
          0.0566667 -0.00166667 0.0
          0.0533333 -0.00166667 0.0
          0.05 -0.00166667 0.0
          0.0466667 -0.00166667 0.0
          0.0433333 -0.00166667 0.0
          0.04 -0.00166667 0.0
          0.0366667 -0.00166667 0.0
          0.0333333 -0.00166667 0.0
          0.03 -0.00166667 0.0
          0.0266667 -0.00166667 0.0
          0.0233333 -0.00166667 0.0
          0.02 -0.00166667 0.0
          0.0166667 -0.00166667 0.0
          0.0133333 -0.00166667 0.0
          0.01 -0.00166667 0.0
          0.00666667 -0.00166667 0.0
          0.00333333 -0.00166667 0.0
          0 -0.00166667 0.0
          0.1 -0.005 0.0
          0.0966667 -0.005 0.0
          0.0933333 -0.005 0.0
          0.09 -0.005 0.0
          0.0866667 -0.005 0.0
          0.0833333 -0.005 0.0
          0.08 -0.005 0.0
          0.0766667 -0.005 0.0
          0.0733333 -0.005 0.0
          0.07 -0.005 0.0
          0.0666667 -0.005 0.0
          0.0633333 -0.005 0.0
          0.06 -0.005 0.0
          0.0566667 -0.005 0.0
          0.0533333 -0.005 0.0
          0.05 -0.005 0.0
          0.0466667 -0.005 0.0
          0.0433333 -0.005 0.0
          0.04 -0.005 0.0
          0.0366667 -0.005 0.0
          0.0333333 -0.005 0.0
          0.03 -0.005 0.0
          0.0266667 -0.005 0.0
          0.0233333 -0.005 0.0
          0.02 -0.005 0.0
          0.0166667 -0.005 0.0
          0.0133333 -0.005 0.0
          0.01 -0.005 0.0
          0.00666667 -0.005 0.0
          0.00333333 -0.005 0.0
          0 -0.005 0.0
          0.1 -0.00833333 0.0
          0.0966667 -0.00833333 0.0
          0.0933333 -0.00833333 0.0
          0.09 -0.00833333 0.0
          0.0866667 -0.00833333 0.0
          0.0833333 -0.00833333 0.0
          0.08 -0.00833333 0.0
          0.0766667 -0.00833333 0.0
          0.0733333 -0.00833333 0.0
          0.07 -0.00833333 0.0
          0.0666667 -0.00833333 0.0
          0.0633333 -0.00833333 0.0
          0.06 -0.00833333 0.0
          0.0566667 -0.00833333 0.0
          0.0533333 -0.00833333 0.0
          0.05 -0.00833333 0.0
          0.0466667 -0.00833333 0.0
          0.0433333 -0.00833333 0.0
          0.04 -0.00833333 0.0
          0.0366667 -0.00833333 0.0
          0.0333333 -0.00833333 0.0
          0.03 -0.00833333 0.0
          0.0266667 -0.00833333 0.0
          0.0233333 -0.00833333 0.0
          0.02 -0.00833333 0.0
          0.0166667 -0.00833333 0.0
          0.0133333 -0.00833333 0.0
          0.01 -0.00833333 0.0
          0.00666667 -0.00833333 0.0
          0.00333333 -0.00833333 0.0
          0 -0.00833333 0.0
          0.1 -0.0116667 0.0
          0.0966667 -0.0116667 0.0
          0.0933333 -0.0116667 0.0
          0.09 -0.0116667 0.0
          0.0866667 -0.0116667 0.0
          0.0833333 -0.0116667 0.0
          0.08 -0.0116667 0.0
          0.0766667 -0.0116667 0.0
          0.0733333 -0.0116667 0.0
          0.07 -0.0116667 0.0
          0.0666667 -0.0116667 0.0
          0.0633333 -0.0116667 0.0
          0.06 -0.0116667 0.0
          0.0566667 -0.0116667 0.0
          0.0533333 -0.0116667 0.0
          0.05 -0.0116667 0.0
          0.0466667 -0.0116667 0.0
          0.0433333 -0.0116667 0.0
          0.04 -0.0116667 0.0
          0.0366667 -0.0116667 0.0
          0.0333333 -0.0116667 0.0
          0.03 -0.0116667 0.0
          0.0266667 -0.0116667 0.0
          0.0233333 -0.0116667 0.0
          0.02 -0.0116667 0.0
          0.0166667 -0.0116667 0.0
          0.0133333 -0.0116667 0.0
          0.01 -0.0116667 0.0
          0.00666667 -0.0116667 0.0
          0.00333333 -0.0116667 0.0
          0 -0.0116667 0.0
          0.1 -0.015 0.0
          0.0966667 -0.015 0.0
          0.0933333 -0.015 0.0
          0.09 -0.015 0.0
          0.0866667 -0.015 0.0
          0.0833333 -0.015 0.0
          0.08 -0.015 0.0
          0.0766667 -0.015 0.0
          0.0733333 -0.015 0.0
          0.07 -0.015 0.0
          0.0666667 -0.015 0.0
          0.0633333 -0.015 0.0
          0.06 -0.015 0.0
          0.0566667 -0.015 0.0
          0.0533333 -0.015 0.0
          0.05 -0.015 0.0
          0.0466667 -0.015 0.0
          0.0433333 -0.015 0.0
          0.04 -0.015 0.0
          0.0366667 -0.015 0.0
          0.0333333 -0.015 0.0
          0.03 -0.015 0.0
          0.0266667 -0.015 0.0
          0.0233333 -0.015 0.0
          0.02 -0.015 0.0
          0.0166667 -0.015 0.0
          0.0133333 -0.015 0.0
          0.01 -0.015 0.0
          0.00666667 -0.015 0.0
          0.00333333 -0.015 0.0
          0 -0.015 0.0
          0.1 -0.0183333 0.0
          0.0966667 -0.0183333 0.0
          0.0933333 -0.0183333 0.0
          0.09 -0.0183333 0.0
          0.0866667 -0.0183333 0.0
          0.0833333 -0.0183333 0.0
          0.08 -0.0183333 0.0
          0.0766667 -0.0183333 0.0
          0.0733333 -0.0183333 0.0
          0.07 -0.0183333 0.0
          0.0666667 -0.0183333 0.0
          0.0633333 -0.0183333 0.0
          0.06 -0.0183333 0.0
          0.0566667 -0.0183333 0.0
          0.0533333 -0.0183333 0.0
          0.05 -0.0183333 0.0
          0.0466667 -0.0183333 0.0
          0.0433333 -0.0183333 0.0
          0.04 -0.0183333 0.0
          0.0366667 -0.0183333 0.0
          0.0333333 -0.0183333 0.0
          0.03 -0.0183333 0.0
          0.0266667 -0.0183333 0.0
          0.0233333 -0.0183333 0.0
          0.02 -0.0183333 0.0
          0.0166667 -0.0183333 0.0
          0.0133333 -0.0183333 0.0
          0.01 -0.0183333 0.0
          0.00666667 -0.0183333 0.0
          0.00333333 -0.0183333 0.0
          0 -0.0183333 0.0
          0.1 -0.0216667 0.0
          0.0966667 -0.0216667 0.0
          0.0933333 -0.0216667 0.0
          0.09 -0.0216667 0.0
          0.0866667 -0.0216667 0.0
          0.0833333 -0.0216667 0.0
          0.08 -0.0216667 0.0
          0.0766667 -0.0216667 0.0
          0.0733333 -0.0216667 0.0
          0.07 -0.0216667 0.0
          0.0666667 -0.0216667 0.0
          0.0633333 -0.0216667 0.0
          0.06 -0.0216667 0.0
          0.0566667 -0.0216667 0.0
          0.0533333 -0.0216667 0.0
          0.05 -0.0216667 0.0
          0.0466667 -0.0216667 0.0
          0.0433333 -0.0216667 0.0
          0.04 -0.0216667 0.0
          0.0366667 -0.0216667 0.0
          0.0333333 -0.0216667 0.0
          0.03 -0.0216667 0.0
          0.0266667 -0.0216667 0.0
          0.0233333 -0.0216667 0.0
          0.02 -0.0216667 0.0
          0.0166667 -0.0216667 0.0
          0.0133333 -0.0216667 0.0
          0.01 -0.0216667 0.0
          0.00666667 -0.0216667 0.0
          0.00333333 -0.0216667 0.0
          0 -0.0216667 0.0
          0.1 -0.025 0.0
          0.0966667 -0.025 0.0
          0.0933333 -0.025 0.0
          0.09 -0.025 0.0
          0.0866667 -0.025 0.0
          0.0833333 -0.025 0.0
          0.08 -0.025 0.0
          0.0766667 -0.025 0.0
          0.0733333 -0.025 0.0
          0.07 -0.025 0.0
          0.0666667 -0.025 0.0
          0.0633333 -0.025 0.0
          0.06 -0.025 0.0
          0.0566667 -0.025 0.0
          0.0533333 -0.025 0.0
          0.05 -0.025 0.0
          0.0466667 -0.025 0.0
          0.0433333 -0.025 0.0
          0.04 -0.025 0.0
          0.0366667 -0.025 0.0
          0.0333333 -0.025 0.0
          0.03 -0.025 0.0
          0.0266667 -0.025 0.0
          0.0233333 -0.025 0.0
          0.02 -0.025 0.0
          0.0166667 -0.025 0.0
          0.0133333 -0.025 0.0
          0.01 -0.025 0.0
          0.00666667 -0.025 0.0
          0.00333333 -0.025 0.0
          0 -0.025 0.0
          0.1 -0.0283333 0.0
          0.0966667 -0.0283333 0.0
          0.0933333 -0.0283333 0.0
          0.09 -0.0283333 0.0
          0.0866667 -0.0283333 0.0
          0.0833333 -0.0283333 0.0
          0.08 -0.0283333 0.0
          0.0766667 -0.0283333 0.0
          0.0733333 -0.0283333 0.0
          0.07 -0.0283333 0.0
          0.0666667 -0.0283333 0.0
          0.0633333 -0.0283333 0.0
          0.06 -0.0283333 0.0
          0.0566667 -0.0283333 0.0
          0.0533333 -0.0283333 0.0
          0.05 -0.0283333 0.0
          0.0466667 -0.0283333 0.0
          0.0433333 -0.0283333 0.0
          0.04 -0.0283333 0.0
          0.0366667 -0.0283333 0.0
          0.0333333 -0.0283333 0.0
          0.03 -0.0283333 0.0
          0.0266667 -0.0283333 0.0
          0.0233333 -0.0283333 0.0
          0.02 -0.0283333 0.0
          0.0166667 -0.0283333 0.0
          0.0133333 -0.0283333 0.0
          0.01 -0.0283333 0.0
          0.00666667 -0.0283333 0.0
          0.00333333 -0.0283333 0.0
          0 -0.0283333 0.0
          0.1 -0.0316667 0.0
          0.0966667 -0.0316667 0.0
          0.0933333 -0.0316667 0.0
          0.09 -0.0316667 0.0
          0.0866667 -0.0316667 0.0
          0.0833333 -0.0316667 0.0
          0.08 -0.0316667 0.0
          0.0766667 -0.0316667 0.0
          0.0733333 -0.0316667 0.0
          0.07 -0.0316667 0.0
          0.0666667 -0.0316667 0.0
          0.0633333 -0.0316667 0.0
          0.06 -0.0316667 0.0
          0.0566667 -0.0316667 0.0
          0.0533333 -0.0316667 0.0
          0.05 -0.0316667 0.0
          0.0466667 -0.0316667 0.0
          0.0433333 -0.0316667 0.0
          0.04 -0.0316667 0.0
          0.0366667 -0.0316667 0.0
          0.0333333 -0.0316667 0.0
          0.03 -0.0316667 0.0
          0.0266667 -0.0316667 0.0
          0.0233333 -0.0316667 0.0
          0.02 -0.0316667 0.0
          0.0166667 -0.0316667 0.0
          0.0133333 -0.0316667 0.0
          0.01 -0.0316667 0.0
          0.00666667 -0.0316667 0.0
          0.00333333 -0.0316667 0.0
          0 -0.0316667 0.0
          0.1 -0.035 0.0
          0.0966667 -0.035 0.0
          0.0933333 -0.035 0.0
          0.09 -0.035 0.0
          0.0866667 -0.035 0.0
          0.0833333 -0.035 0.0
          0.08 -0.035 0.0
          0.0766667 -0.035 0.0
          0.0733333 -0.035 0.0
          0.07 -0.035 0.0
          0.0666667 -0.035 0.0
          0.0633333 -0.035 0.0
          0.06 -0.035 0.0
          0.0566667 -0.035 0.0
          0.0533333 -0.035 0.0
          0.05 -0.035 0.0