<?xml version="1.0"?>
<VTKFile type="UnstructuredGrid" version="0.1" byte_order="LittleEndian">
  <UnstructuredGrid>
    <Piece NumberOfPoints="961" NumberOfCells="900">
      <PointData Scalars="Temperature">
        <DataArray type="Float32" Name="Temperature" format="ascii">
          42.206
          42.206
          42.206
          42.206
          42.206
          42.206
          42.206
          42.206
          42.206
          42.206
          42.206
          42.206
          42.206
          42.206
          42.206
          42.206
          42.206
          42.206
          42.206
          42.206
          42.206
          42.206
          42.206
          42.206
          42.206
          42.206
          42.206
          42.206
          42.206
          42.206
          42.206
          42.206
          42.206
          42.206
          42.206
          42.206
          42.206
          42.206
          42.206
          42.206
          42.206
          42.206
          42.206
          42.206
          42.206
          42.206
          42.206
          42.206
          42.206
          42.206
          42.206
          42.206
          42.206
          42.206
          42.206
          42.206
          42.206
          42.206
          42.206
          42.206
          42.206
          42.206
          42.206
          42.206
          42.206
          42.206
          42.206
          42.206
          42.206
          42.206
          42.206
          42.206
          42.206
          42.206
          42.206
          42.206
          42.206
          42.206
          42.206
          42.206
          42.206
          42.206
          42.206
          42.206
          42.206
          42.206
          42.206
          42.206
          42.206
          42.206
          42.206
          42.206
          42.206
          42.206
          42.206
          42.206
          42.206
          62.3253
          62.3271
          62.3275
          62.3267
          42.206
          42.206
          62.6421
          62.6431
          62.6431
          62.6421
          42.206
          42.206
          62.679
          62.68
          62.68
          62.679
          42.206
          42.206
          62.4021
          62.403
          62.4027
          62.401
          42.206
          42.206
          42.206
          42.206
          42.206
          42.206
          42.206
          42.206
          42.206
          62.328
          62.3287
          62.329
          62.329
          42.206
          42.206
          62.6443
          62.6445
          62.6445
          62.6443
          42.206
          42.206
          62.6812
          62.6814
          62.6814
          62.6812
          42.206
          42.206
          62.4044
          62.4045
          62.4042
          62.4036
          42.206
          42.206
          42.206
          42.206
          42.206
          42.206
          42.206
          42.206
          42.206
          62.3308
          62.3314
          62.3317
          62.3317
          42.206
          42.206
          62.6467
          62.6468
          62.6468
          62.6467
          42.206
          42.206
          62.6835
          62.6836
          62.6836
          62.6835
          42.206
          42.206
          62.4071
          62.4071
          62.4068
          62.4063
          42.206
          42.206
          42.206
          42.206
          42.206
          42.206
          42.206
          42.206
          42.206
          62.3342
          62.3347
          62.335
          62.3351
          42.206
          42.206
          62.6495
          62.6496
          62.6496
          62.6496
          42.206
          42.206
          62.6864
          62.6865
          62.6865
          62.6864
          42.206
          42.206
          62.4104
          62.4104
          62.4101
          62.4097
          42.206
          42.206
          42.206
          42.206
          42.206
          42.206
          42.206
          42.206
          42.206
          62.3383
          62.3388
          62.3391
          62.3392
          42.206
          42.206
          62.6529
          62.653
          62.653
          62.6529
          42.206
          42.206
          62.6898
          62.6898
          62.6898
          62.6898
          42.206
          42.206
          62.4144
          62.4143
          62.4141
          62.4136
          42.206
          42.206
          42.206
          42.206
          42.206
          42.206
          42.206
          42.206
          42.206
          62.3431
          62.3436
          62.3439
          62.3439
          42.206
          42.206
          62.6568
          62.6568
          62.6568
          62.6568
          42.206
          42.206
          62.6936
          62.6937
          62.6937
          62.6936
          42.206
          42.206
          62.419
          62.419
          62.4187
          62.4183
          42.206
          42.206
          42.206
          42.206
          42.206
          42.206
          42.206
          42.206
          42.206
          62.3486
          62.3491
          62.3494
          62.3494
          42.206
          42.206
          62.6611
          62.6612
          62.6612
          62.6611
          42.206
          42.206
          62.698
          62.6981
          62.6981
          62.698
          42.206
          42.206
          62.4243
          62.4243
          62.424
          62.4236
          42.206
          42.206
          42.206
          42.206
          42.206
          42.206
          42.206
          42.206
          42.206
          62.3547
          62.3552
          62.3555
          62.3556
          42.206
          42.206
          62.666
          62.6661
          62.6661
          62.666
          42.206
          42.206
          62.7029
          62.7029
          62.7029
          62.7029
          42.206
          42.206
          62.4302
          62.4302
          62.43
          62.4295
          42.206
          42.206
          42.206
          42.206
          42.206
          42.206
          42.206
          42.206
          42.206
          62.3615
          62.3621
          62.3624
          62.3624
          42.206
          42.206
          62.6714
          62.6714
          62.6714
          62.6714
          42.206
          42.206
          62.7083
          62.7083
          62.7083
          62.7082
          42.206
          42.206
          62.4368
          62.4368
          62.4365
          62.4361
          42.206
          42.206
          42.206
          42.206
          42.206
          42.206
          42.206
          42.206
          42.206
          62.3691
          62.3696
          62.3699
          62.3699
          42.206
          42.206
          62.6772
          62.6773
          62.6773
          62.6773
          42.206
          42.206
          62.7141
          62.7142
          62.7142
          62.7141
          42.206
          42.206
          62.444
          62.444
          62.4438
          62.4433
          42.206
          42.206
          42.206
          42.206
          42.206
          42.206
          42.206
          42.206
          42.206
          62.3773
          62.3778
          62.3781
          62.3781
          42.206
          42.206
          62.6836
          62.6837
          62.6837
          62.6836
          42.206
          42.206
          62.7205
          62.7206
          62.7206
          62.7205
          42.206
          42.206
          62.4519
          62.4519
          62.4516
          62.4512
          42.206
          42.206
          42.206
          42.206
          42.206
          42.206
          42.206
          42.206
          42.206
          62.3862
          62.3867
          62.387
          62.387
          42.206
          42.206
          62.6905
          62.6906
          62.6906
          62.6905
          42.206
          42.206
          62.7274
          62.7275
          62.7275
          62.7274
          42.206
          42.206
          62.4604
          62.4604
          62.4602
          62.4597
          42.206
          42.206
          42.206
          42.206
          42.206
          42.206
          42.206
          42.206
          42.206
          62.3958
          62.3963
          62.3966
          62.3966
          42.206
          42.206
          62.6979
          62.6979
          62.6979
          62.6979
          42.206
          42.206
          62.7348
          62.7348
          62.7348
          62.7348
          42.206
          42.206
          62.4696
          62.4696
          62.4694
          62.4689
          42.206
          42.206
          42.206
          42.206
          42.206
          42.206
          42.206
          42.206
          42.206
          62.406
          62.4066
          62.4069
          62.4069
          42.206
          42.206
          62.7058
          62.7058
          62.7058
          62.7058
          42.206
          42.206
          62.7427
          62.7427
          62.7427
          62.7427
          42.206
          42.206
          62.4794
          62.4794
          62.4792
          62.4787
          42.206
          42.206
          42.206
          42.206
          42.206
          42.206
          42.206
          42.206
          42.206
          62.417
          62.4175
          62.4178
          62.4179
          42.206
          42.206
          62.7141
          62.7142
          62.7142
          62.7142
          42.206
          42.206
          62.7511
          62.7511
          62.7511
          62.7511
          42.206
          42.206
          62.4899
          62.4899
          62.4897
          62.4892
          42.206
          42.206
          42.206
          42.206
          42.206
          42.206
          42.206
          42.206
          42.206
          62.4286
          62.4292
          62.4295
          62.4295
          42.206
          42.206
          62.723
          62.7231
          62.7231
          62.723
          42.206
          42.206
          62.76
          62.76
          62.76
          62.7599
          42.206
          42.206
          62.501
          62.501
          62.5008
          62.5003
          42.206
          42.206
          42.206
          42.206
          42.206
          42.206
          42.206
          42.206
          42.206
          62.441
          62.4415
          62.4418
          62.4418
          42.206
          42.206
          62.7324
          62.7325
          62.7325
          62.7324
          42.206
          42.206
          62.7694
          62.7694
          62.7694
          62.7693
          42.206
          42.206
          62.5128
          62.5128
          62.5126
          62.5121
          42.206
          42.206
          42.206
          42.206
          42.206
          42.206
          42.206
          42.206
          42.206
          62.454
          62.4545
          62.4548
          62.4548
          42.206
          42.206
          62.7423
          62.7424
          62.7424
          62.7423
          42.206
          42.206
          62.7793
          62.7793
          62.7793
          62.7792
          42.206
          42.206
          62.5252
          62.5252
          62.525
          62.5245
          42.206
          42.206
          42.206
          42.206
          42.206
          42.206
          42.206
          42.206
          42.206
          62.4677
          62.4682
          62.4685
          62.4686
          42.206
          42.206
          62.7527
          62.7528
          62.7528
          62.7527
          42.206
          42.206
          62.7897
          62.7897
          62.7897
          62.7896
          42.206
          42.206
          62.5383
          62.5383
          62.538
          62.5376
          42.206
          42.206
          42.206
          42.206
          42.206
          42.206
          42.206
          42.206
          42.206
          62.482
          62.4825
          62.4829
          62.483
          42.206
          42.206
          62.7635
          62.7636
          62.7637
          62.7637
          42.206
          42.206
          62.8006
          62.8006
          62.8006
          62.8005
          42.206
          42.206
          62.5521
          62.552
          62.5517
          62.5513
          42.206
          42.206
          42.206
          42.206
          42.206
          42.206
          42.206
          42.206
          42.206
          62.4968
          62.4975
          62.4981
          62.4983
          42.206
          42.206
          62.7747
          62.7749
          62.7752
          62.7753
          42.206
          42.206
          62.8122
          62.8121
          62.8119
          62.8118
          42.206
          42.206
          62.5667
          62.5665
          62.566
          62.5654
          42.206
          42.206
          42.206
          42.206
          42.206
          42.206
          42.206
          42.206
          42.206
          62.5119
          62.5129
          62.5142
          62.5147
          42.206
          42.206
          62.786
          62.7865
          62.7874
          62.7878
          42.206
          42.206
          62.8245
          62.8242
          62.8236
          62.8232
          42.206
          42.206
          62.5823
          62.5818
          62.5806
          62.5797
          42.206
          42.206
          42.206
          42.206
          42.206
          42.206
          42.206
          42.206
          42.206
          62.526
          62.5282
          62.5316
          62.5334
          42.206
          42.206
          62.7963
          62.7979
          62.8008
          62.8023
          42.206
          42.206
          62.8383
          62.8373
          62.8354
          62.8343
          42.206
          42.206
          62.6002
          62.5985
          62.5951
          62.5931
          42.206
          42.206
          42.206
          42.206
          42.206
          42.206
          42.206
          42.206
          42.206
          62.5365
          62.5409
          62.5528
          62.557
          42.206
          42.206
          62.8033
          62.8071
          62.8174
          62.8211
          42.206
          42.206
          62.8552
          62.8527
          62.8458
          62.8432
          42.206
          42.206
          62.623
          62.6188
          62.607
          62.6027
          42.206
          42.206
          42.206
          42.206
          42.206
          62.3609
          62.4167
          62.456
          62.4916
          62.5296
          62.5504
          62.5735
          62.6086
          62.6816
          62.736
          62.7906
          62.8157
          62.8361
          62.8593
          62.8944
          62.9019
          62.8845
          62.8701
          62.8563
          62.8381
          62.7939
          62.744
          62.6734
          62.6389
          62.6158
          62.5947
          62.5562
          62.5215
          62.4858
          62.4466
          62.3907
          62.3836
          62.422
          62.458
          62.4924
          62.5248
          62.5565
          62.59
          62.6331
          62.6836
          62.7384
          62.7868
          62.8271
          62.8582
          62.8844
          62.9031
          62.9105
          62.9053
          62.8913
          62.8708
          62.84
          62.7983
          62.7472
          62.6977
          62.655
          62.6213
          62.5894
          62.5566
          62.5222
          62.488
          62.452
          62.4135
          62.4089
          62.4324
          62.4612
          62.493
          62.526
          62.5604
          62.5982
          62.6411
          62.6895
          62.742
          62.7979
          62.8479
          62.8849
          62.9116
          62.9286
          62.9354
          62.9318
          62.9182
          62.8945
          62.8593
          62.8099
          62.7554
          62.7063
          62.6631
          62.625
          62.5901
          62.5564
          62.5233
          62.4912
          62.4624
          62.4388
          62.4275
          62.4367
          62.4628
          62.4935
          62.5266
          62.5619
          62.6004
          62.6435
          62.6915
          62.7443
          62.8054
          62.8614
          62.9002
          62.9273
          62.9442
          62.9509
          62.9475
          62.9337
          62.9093
          62.8723
          62.8177
          62.7586
          62.709
          62.6654
          62.6264
          62.5906
          62.5566
          62.5237
          62.4929
          62.4668
          62.4574
        </DataArray>
      </PointData>
      <CellData>
      </CellData>
      <Points>
        <DataArray type="Float32" NumberOfComponents="3" format="ascii">
          0.039 0.00195 0.0
          0.0377 0.00195 0.0
          0.0364 0.00195 0.0
          0.0351 0.00195 0.0
          0.0338 0.00195 0.0
          0.0325 0.00195 0.0
          0.0312 0.00195 0.0
          0.0299 0.00195 0.0
          0.0286 0.00195 0.0
          0.0273 0.00195 0.0
          0.026 0.00195 0.0
          0.0247 0.00195 0.0
          0.0234 0.00195 0.0
          0.0221 0.00195 0.0
          0.0208 0.00195 0.0
          0.0195 0.00195 0.0
          0.0182 0.00195 0.0
          0.0169 0.00195 0.0
          0.0156 0.00195 0.0
          0.0143 0.00195 0.0
          0.013 0.00195 0.0
          0.0117 0.00195 0.0
          0.0104 0.00195 0.0
          0.0091 0.00195 0.0
          0.0078 0.00195 0.0
          0.0065 0.00195 0.0
          0.0052 0.00195 0.0
          0.0039 0.00195 0.0
          0.0026 0.00195 0.0
          0.0013 0.00195 0.0
          0 0.00195 0.0
          0.039 0.00065 0.0
          0.0377 0.00065 0.0
          0.0364 0.00065 0.0
          0.0351 0.00065 0.0
          0.0338 0.00065 0.0
          0.0325 0.00065 0.0
          0.0312 0.00065 0.0
          0.0299 0.00065 0.0
          0.0286 0.00065 0.0
          0.0273 0.00065 0.0
          0.026 0.00065 0.0
          0.0247 0.00065 0.0
          0.0234 0.00065 0.0
          0.0221 0.00065 0.0
          0.0208 0.00065 0.0
          0.0195 0.00065 0.0
          0.0182 0.00065 0.0
          0.0169 0.00065 0.0
          0.0156 0.00065 0.0
          0.0143 0.00065 0.0
          0.013 0.00065 0.0
          0.0117 0.00065 0.0
          0.0104 0.00065 0.0
          0.0091 0.00065 0.0
          0.0078 0.00065 0.0
          0.0065 0.00065 0.0
          0.0052 0.00065 0.0
          0.0039 0.00065 0.0
          0.0026 0.00065 0.0
          0.0013 0.00065 0.0
          0 0.00065 0.0
          0.039 -0.00065 0.0
          0.0377 -0.00065 0.0
          0.0364 -0.00065 0.0
          0.0351 -0.00065 0.0
          0.0338 -0.00065 0.0
          0.0325 -0.00065 0.0
          0.0312 -0.00065 0.0
          0.0299 -0.00065 0.0
          0.0286 -0.00065 0.0
          0.0273 -0.00065 0.0
          0.026 -0.00065 0.0
          0.0247 -0.00065 0.0
          0.0234 -0.00065 0.0
          0.0221 -0.00065 0.0
          0.0208 -0.00065 0.0
          0.0195 -0.00065 0.0
          0.0182 -0.00065 0.0
          0.0169 -0.00065 0.0
          0.0156 -0.00065 0.0
          0.0143 -0.00065 0.0
          0.013 -0.00065 0.0
          0.0117 -0.00065 0.0
          0.0104 -0.00065 0.0
          0.0091 -0.00065 0.0
          0.0078 -0.00065 0.0
          0.0065 -0.00065 0.0
          0.0052 -0.00065 0.0
          0.0039 -0.00065 0.0
          0.0026 -0.00065 0.0
          0.0013 -0.00065 0.0
          0 -0.00065 0.0
          0.039 -0.00195 0.0
          0.0377 -0.00195 0.0
          0.0364 -0.00195 0.0
          0.0351 -0.00195 0.0
          0.0338 -0.00195 0.0
          0.0325 -0.00195 0.0
          0.0312 -0.00195 0.0
          0.0299 -0.00195 0.0
          0.0286 -0.00195 0.0
          0.0273 -0.00195 0.0
          0.026 -0.00195 0.0
          0.0247 -0.00195 0.0
          0.0234 -0.00195 0.0
          0.0221 -0.00195 0.0
          0.0208 -0.00195 0.0
          0.0195 -0.00195 0.0
          0.0182 -0.00195 0.0
          0.0169 -0.00195 0.0
          0.0156 -0.00195 0.0
          0.0143 -0.00195 0.0
          0.013 -0.00195 0.0
          0.0117 -0.00195 0.0
          0.0104 -0.00195 0.0
          0.0091 -0.00195 0.0
          0.0078 -0.00195 0.0
          0.0065 -0.00195 0.0
          0.0052 -0.00195 0.0
          0.0039 -0.00195 0.0
          0.0026 -0.00195 0.0
          0.0013 -0.00195 0.0
          0 -0.00195 0.0
          0.039 -0.00325 0.0
          0.0377 -0.00325 0.0
          0.0364 -0.00325 0.0
          0.0351 -0.00325 0.0
          0.0338 -0.00325 0.0
          0.0325 -0.00325 0.0
          0.0312 -0.00325 0.0
          0.0299 -0.00325 0.0
          0.0286 -0.00325 0.0
          0.0273 -0.00325 0.0
          0.026 -0.00325 0.0
          0.0247 -0.00325 0.0
          0.0234 -0.00325 0.0
          0.0221 -0.00325 0.0
          0.0208 -0.00325 0.0
          0.0195 -0.00325 0.0
          0.0182 -0.00325 0.0
          0.0169 -0.00325 0.0
          0.0156 -0.00325 0.0
          0.0143 -0.00325 0.0
          0.013 -0.00325 0.0
          0.0117 -0.00325 0.0
          0.0104 -0.00325 0.0
          0.0091 -0.00325 0.0
          0.0078 -0.00325 0.0
          0.0065 -0.00325 0.0
          0.0052 -0.00325 0.0
          0.0039 -0.00325 0.0
          0.0026 -0.00325 0.0
          0.0013 -0.00325 0.0
          0 -0.00325 0.0
          0.039 -0.00455 0.0
          0.0377 -0.00455 0.0
          0.0364 -0.00455 0.0
          0.0351 -0.00455 0.0
          0.0338 -0.00455 0.0
          0.0325 -0.00455 0.0
          0.0312 -0.00455 0.0
          0.0299 -0.00455 0.0
          0.0286 -0.00455 0.0
          0.0273 -0.00455 0.0
          0.026 -0.00455 0.0
          0.0247 -0.00455 0.0
          0.0234 -0.00455 0.0
          0.0221 -0.00455 0.0
          0.0208 -0.00455 0.0
          0.0195 -0.00455 0.0
          0.0182 -0.00455 0.0
          0.0169 -0.00455 0.0
          0.0156 -0.00455 0.0
          0.0143 -0.00455 0.0
          0.013 -0.00455 0.0
          0.0117 -0.00455 0.0
          0.0104 -0.00455 0.0
          0.0091 -0.00455 0.0
          0.0078 -0.00455 0.0
          0.0065 -0.00455 0.0
          0.0052 -0.00455 0.0
          0.0039 -0.00455 0.0
          0.0026 -0.00455 0.0
          0.0013 -0.00455 0.0
          0 -0.00455 0.0
          0.039 -0.00585 0.0
          0.0377 -0.00585 0.0
          0.0364 -0.00585 0.0
          0.0351 -0.00585 0.0
          0.0338 -0.00585 0.0
          0.0325 -0.00585 0.0
          0.0312 -0.00585 0.0
          0.0299 -0.00585 0.0
          0.0286 -0.00585 0.0
          0.0273 -0.00585 0.0
          0.026 -0.00585 0.0
          0.0247 -0.00585 0.0
          0.0234 -0.00585 0.0
          0.0221 -0.00585 0.0
          0.0208 -0.00585 0.0
          0.0195 -0.00585 0.0
          0.0182 -0.00585 0.0
          0.0169 -0.00585 0.0
          0.0156 -0.00585 0.0
          0.0143 -0.00585 0.0
          0.013 -0.00585 0.0
          0.0117 -0.00585 0.0
          0.0104 -0.00585 0.0
          0.0091 -0.00585 0.0
          0.0078 -0.00585 0.0
          0.0065 -0.00585 0.0
          0.0052 -0.00585 0.0
          0.0039 -0.00585 0.0
          0.0026 -0.00585 0.0
          0.0013 -0.00585 0.0
          0 -0.00585 0.0
          0.039 -0.00715 0.0
          0.0377 -0.00715 0.0
          0.0364 -0.00715 0.0
          0.0351 -0.00715 0.0
          0.0338 -0.00715 0.0
          0.0325 -0.00715 0.0
          0.0312 -0.00715 0.0
          0.0299 -0.00715 0.0
          0.0286 -0.00715 0.0
          0.0273 -0.00715 0.0
          0.026 -0.00715 0.0
          0.0247 -0.00715 0.0
          0.0234 -0.00715 0.0
          0.0221 -0.00715 0.0
          0.0208 -0.00715 0.0
          0.0195 -0.00715 0.0
          0.0182 -0.00715 0.0
          0.0169 -0.00715 0.0
          0.0156 -0.00715 0.0
          0.0143 -0.00715 0.0
          0.013 -0.00715 0.0
          0.0117 -0.00715 0.0
          0.0104 -0.00715 0.0
          0.0091 -0.00715 0.0
          0.0078 -0.00715 0.0
          0.0065 -0.00715 0.0
          0.0052 -0.00715 0.0
          0.0039 -0.00715 0.0
          0.0026 -0.00715 0.0
          0.0013 -0.00715 0.0
          0 -0.00715 0.0
          0.039 -0.00845 0.0
          0.0377 -0.00845 0.0
          0.0364 -0.00845 0.0
          0.0351 -0.00845 0.0
          0.0338 -0.00845 0.0
          0.0325 -0.00845 0.0
          0.0312 -0.00845 0.0
          0.0299 -0.00845 0.0
          0.0286 -0.00845 0.0
          0.0273 -0.00845 0.0
          0.026 -0.00845 0.0
          0.0247 -0.00845 0.0
          0.0234 -0.00845 0.0
          0.0221 -0.00845 0.0
          0.0208 -0.00845 0.0
          0.0195 -0.00845 0.0
          0.0182 -0.00845 0.0
          0.0169 -0.00845 0.0
          0.0156 -0.00845 0.0
          0.0143 -0.00845 0.0
          0.013 -0.00845 0.0
          0.0117 -0.00845 0.0
          0.0104 -0.00845 0.0
          0.0091 -0.00845 0.0
          0.0078 -0.00845 0.0
          0.0065 -0.00845 0.0
          0.0052 -0.00845 0.0
          0.0039 -0.00845 0.0
          0.0026 -0.00845 0.0
          0.0013 -0.00845 0.0
          0 -0.00845 0.0
          0.039 -0.00975 0.0
          0.0377 -0.00975 0.0
          0.0364 -0.00975 0.0
          0.0351 -0.00975 0.0
          0.0338 -0.00975 0.0
          0.0325 -0.00975 0.0
          0.0312 -0.00975 0.0
          0.0299 -0.00975 0.0
          0.0286 -0.00975 0.0
          0.0273 -0.00975 0.0
          0.026 -0.00975 0.0
          0.0247 -0.00975 0.0
          0.0234 -0.00975 0.0
          0.0221 -0.00975 0.0
          0.0208 -0.00975 0.0
          0.0195 -0.00975 0.0
          0.0182 -0.00975 0.0
          0.0169 -0.00975 0.0
          0.0156 -0.00975 0.0
          0.0143 -0.00975 0.0
          0.013 -0.00975 0.0
          0.0117 -0.00975 0.0
          0.0104 -0.00975 0.0
          0.0091 -0.00975 0.0
          0.0078 -0.00975 0.0
          0.0065 -0.00975 0.0
          0.0052 -0.00975 0.0
          0.0039 -0.00975 0.0
          0.0026 -0.00975 0.0
          0.0013 -0.00975 0.0
          0 -0.00975 0.0
          0.039 -0.01105 0.0
          0.0377 -0.01105 0.0
          0.0364 -0.01105 0.0
          0.0351 -0.01105 0.0
          0.0338 -0.01105 0.0
          0.0325 -0.01105 0.0
          0.0312 -0.01105 0.0
          0.0299 -0.01105 0.0
          0.0286 -0.01105 0.0
          0.0273 -0.01105 0.0
          0.026 -0.01105 0.0
          0.0247 -0.01105 0.0
          0.0234 -0.01105 0.0
          0.0221 -0.01105 0.0
          0.0208 -0.01105 0.0
          0.0195 -0.01105 0.0
          0.0182 -0.01105 0.0
          0.0169 -0.01105 0.0
          0.0156 -0.01105 0.0
          0.0143 -0.01105 0.0
          0.013 -0.01105 0.0
          0.0117 -0.01105 0.0
          0.0104 -0.01105 0.0
          0.0091 -0.01105 0.0
          0.0078 -0.01105 0.0
          0.0065 -0.01105 0.0
          0.0052 -0.01105 0.0
          0.0039 -0.01105 0.0
          0.0026 -0.01105 0.0
          0.0013 -0.01105 0.0
          0 -0.01105 0.0
          0.039 -0.01235 0.0
          0.0377 -0.01235 0.0
          0.0364 -0.01235 0.0
          0.0351 -0.01235 0.0
          0.0338 -0.01235 0.0
          0.0325 -0.01235 0.0
          0.0312 -0.01235 0.0
          0.0299 -0.01235 0.0
          0.0286 -0.01235 0.0
          0.0273 -0.01235 0.0
          0.026 -0.01235 0.0
          0.0247 -0.01235 0.0
          0.0234 -0.01235 0.0
          0.0221 -0.01235 0.0
          0.0208 -0.01235 0.0
          0.0195 -0.01235 0.0
          0.0182 -0.01235 0.0
          0.0169 -0.01235 0.0
          0.0156 -0.01235 0.0
          0.0143 -0.01235 0.0
          0.013 -0.01235 0.0
          0.0117 -0.01235 0.0
          0.0104 -0.01235 0.0
          0.0091 -0.01235 0.0
          0.0078 -0.01235 0.0
          0.0065 -0.01235 0.0
          0.0052 -0.01235 0.0
          0.0039 -0.01235 0.0
          0.0026 -0.01235 0.0
          0.0013 -0.01235 0.0
          0 -0.01235 0.0
          0.039 -0.01365 0.0
          0.0377 -0.01365 0.0
          0.0364 -0.01365 0.0
          0.0351 -0.01365 0.0
          0.0338 -0.01365 0.0
          0.0325 -0.01365 0.0
          0.0312 -0.01365 0.0
          0.0299 -0.01365 0.0
          0.0286 -0.01365 0.0
          0.0273 -0.01365 0.0
          0.026 -0.01365 0.0
          0.0247 -0.01365 0.0
          0.0234 -0.01365 0.0
          0.0221 -0.01365 0.0
          0.0208 -0.01365 0.0
          0.0195 -0.01365 0.0
          0.0182 -0.01365 0.0
          0.0169 -0.01365 0.0
          0.0156 -0.01365 0.0
          0.0143 -0.01365 0.0
          0.013 -0.01365 0.0
          0.0117 -0.01365 0.0
          0.0104 -0.01365 0.0
          0.0091 -0.01365 0.0
          0.0078 -0.01365 0.0
          0.0065 -0.01365 0.0
          0.0052 -0.01365 0.0
          0.0039 -0.01365 0.0
          0.0026 -0.01365 0.0
          0.0013 -0.01365 0.0
          0 -0.01365 0.0
          0.039 -0.01495 0.0
          0.0377 -0.01495 0.0
          0.0364 -0.01495 0.0
          0.0351 -0.01495 0.0
          0.0338 -0.01495 0.0
          0.0325 -0.01495 0.0
          0.0312 -0.01495 0.0
          0.0299 -0.01495 0.0
          0.0286 -0.01495 0.0
          0.0273 -0.01495 0.0
          0.026 -0.01495 0.0
          0.0247 -0.01495 0.0
          0.0234 -0.01495 0.0
          0.0221 -0.01495 0.0
          0.0208 -0.01495 0.0
          0.0195 -0.01495 0.0
          0.0182 -0.01495 0.0
          0.0169 -0.01495 0.0
          0.0156 -0.01495 0.0
          0.0143 -0.01495 0.0
          0.013 -0.01495 0.0
          0.0117 -0.01495 0.0
          0.0104 -0.01495 0.0
          0.0091 -0.01495 0.0
          0.0078 -0.01495 0.0
          0.0065 -0.01495 0.0
          0.0052 -0.01495 0.0
          0.0039 -0.01495 0.0