<?xml version="1.0"?>
<VTKFile type="UnstructuredGrid" version="0.1" byte_order="LittleEndian">
  <UnstructuredGrid>
    <Piece NumberOfPoints="961" NumberOfCells="900">
      <PointData Scalars="Temperature">
        <DataArray type="Float32" Name="Temperature" format="ascii">
          30.4933
          30.4933
          30.4933
          30.4933
          30.4933
          30.4933
          30.4933
          30.4933
          30.4933
          30.4933
          30.4933
          30.4933
          30.4933
          30.4933
          30.4933
          30.4933
          30.4933
          30.4933
          30.4933
          30.4933
          30.4933
          30.4933
          30.4933
          30.4933
          30.4933
          30.4933
          30.4933
          30.4933
          30.4933
          30.4933
          30.4933
          30.4933
          30.4933
          30.4933
          30.4933
          30.4933
          30.4933
          30.4933
          30.4933
          30.4933
          30.4933
          30.4933
          30.4933
          30.4933
          30.4933
          30.4933
          30.4933
          30.4933
          30.4933
          30.4933
          30.4933
          30.4933
          30.4933
          30.4933
          30.4933
          30.4933
          30.4933
          30.4933
          30.4933
          30.4933
          30.4933
          30.4933
          30.4933
          30.4933
          30.4933
          30.4933
          30.4933
          30.4933
          30.4933
          30.4933
          30.4933
          30.4933
          30.4933
          30.4933
          30.4933
          30.4933
          30.4933
          30.4933
          30.4933
          30.4933
          30.4933
          30.4933
          30.4933
          30.4933
          30.4933
          30.4933
          30.4933
          30.4933
          30.4933
          30.4933
          30.4933
          30.4933
          30.4933
          30.4933
          30.4933
          30.4933
          30.4933
          39.4085
          39.4093
          39.4095
          39.4091
          30.4933
          30.4933
          39.6394
          39.6399
          39.6399
          39.6394
          30.4933
          30.4933
          39.6741
          39.6746
          39.6745
          39.6741
          30.4933
          30.4933
          39.4721
          39.4725
          39.4724
          39.4716
          30.4933
          30.4933
          30.4933
          30.4933
          30.4933
          30.4933
          30.4933
          30.4933
          30.4933
          39.41
          39.4103
          39.4105
          39.4104
          30.4933
          30.4933
          39.6407
          39.6408
          39.6408
          39.6407
          30.4933
          30.4933
          39.6754
          39.6755
          39.6755
          39.6754
          30.4933
          30.4933
          39.4735
          39.4735
          39.4734
          39.4731
          30.4933
          30.4933
          30.4933
          30.4933
          30.4933
          30.4933
          30.4933
          30.4933
          30.4933
          39.4122
          39.4124
          39.4126
          39.4126
          30.4933
          30.4933
          39.6427
          39.6427
          39.6427
          39.6427
          30.4933
          30.4933
          39.6774
          39.6774
          39.6774
          39.6774
          30.4933
          30.4933
          39.4756
          39.4756
          39.4755
          39.4752
          30.4933
          30.4933
          30.4933
          30.4933
          30.4933
          30.4933
          30.4933
          30.4933
          30.4933
          39.4152
          39.4155
          39.4156
          39.4156
          30.4933
          30.4933
          39.6455
          39.6455
          39.6455
          39.6455
          30.4933
          30.4933
          39.6802
          39.6802
          39.6802
          39.6802
          30.4933
          30.4933
          39.4786
          39.4786
          39.4785
          39.4782
          30.4933
          30.4933
          30.4933
          30.4933
          30.4933
          30.4933
          30.4933
          30.4933
          30.4933
          39.4192
          39.4194
          39.4195
          39.4196
          30.4933
          30.4933
          39.6491
          39.6492
          39.6492
          39.6491
          30.4933
          30.4933
          39.6838
          39.6839
          39.6839
          39.6838
          30.4933
          30.4933
          39.4825
          39.4825
          39.4824
          39.4822
          30.4933
          30.4933
          30.4933
          30.4933
          30.4933
          30.4933
          30.4933
          30.4933
          30.4933
          39.424
          39.4243
          39.4244
          39.4244
          30.4933
          30.4933
          39.6536
          39.6536
          39.6536
          39.6536
          30.4933
          30.4933
          39.6883
          39.6884
          39.6884
          39.6883
          30.4933
          30.4933
          39.4873
          39.4873
          39.4872
          39.487
          30.4933
          30.4933
          30.4933
          30.4933
          30.4933
          30.4933
          30.4933
          30.4933
          30.4933
          39.4298
          39.4301
          39.4302
          39.4302
          30.4933
          30.4933
          39.6589
          39.659
          39.659
          39.6589
          30.4933
          30.4933
          39.6936
          39.6937
          39.6937
          39.6936
          30.4933
          30.4933
          39.493
          39.493
          39.4929
          39.4927
          30.4933
          30.4933
          30.4933
          30.4933
          30.4933
          30.4933
          30.4933
          30.4933
          30.4933
          39.4365
          39.4368
          39.4369
          39.4369
          30.4933
          30.4933
          39.6651
          39.6651
          39.6651
          39.6651
          30.4933
          30.4933
          39.6998
          39.6998
          39.6998
          39.6998
          30.4933
          30.4933
          39.4996
          39.4996
          39.4995
          39.4993
          30.4933
          30.4933
          30.4933
          30.4933
          30.4933
          30.4933
          30.4933
          30.4933
          30.4933
          39.4442
          39.4444
          39.4445
          39.4445
          30.4933
          30.4933
          39.6721
          39.6721
          39.6721
          39.6721
          30.4933
          30.4933
          39.7068
          39.7068
          39.7068
          39.7068
          30.4933
          30.4933
          39.5071
          39.5071
          39.507
          39.5068
          30.4933
          30.4933
          30.4933
          30.4933
          30.4933
          30.4933
          30.4933
          30.4933
          30.4933
          39.4527
          39.4529
          39.4531
          39.4531
          30.4933
          30.4933
          39.6799
          39.68
          39.68
          39.6799
          30.4933
          30.4933
          39.7147
          39.7147
          39.7147
          39.7147
          30.4933
          30.4933
          39.5155
          39.5155
          39.5154
          39.5152
          30.4933
          30.4933
          30.4933
          30.4933
          30.4933
          30.4933
          30.4933
          30.4933
          30.4933
          39.4622
          39.4624
          39.4625
          39.4625
          30.4933
          30.4933
          39.6886
          39.6886
          39.6886
          39.6886
          30.4933
          30.4933
          39.7233
          39.7234
          39.7234
          39.7233
          30.4933
          30.4933
          39.5248
          39.5248
          39.5247
          39.5245
          30.4933
          30.4933
          30.4933
          30.4933
          30.4933
          30.4933
          30.4933
          30.4933
          30.4933
          39.4725
          39.4728
          39.4729
          39.4729
          30.4933
          30.4933
          39.6981
          39.6981
          39.6981
          39.6981
          30.4933
          30.4933
          39.7329
          39.7329
          39.7329
          39.7328
          30.4933
          30.4933
          39.5351
          39.5351
          39.5349
          39.5347
          30.4933
          30.4933
          30.4933
          30.4933
          30.4933
          30.4933
          30.4933
          30.4933
          30.4933
          39.4838
          39.484
          39.4842
          39.4842
          30.4933
          30.4933
          39.7085
          39.7085
          39.7085
          39.7085
          30.4933
          30.4933
          39.7432
          39.7432
          39.7432
          39.7432
          30.4933
          30.4933
          39.5462
          39.5462
          39.5461
          39.5459
          30.4933
          30.4933
          30.4933
          30.4933
          30.4933
          30.4933
          30.4933
          30.4933
          30.4933
          39.496
          39.4962
          39.4964
          39.4964
          30.4933
          30.4933
          39.7196
          39.7197
          39.7197
          39.7196
          30.4933
          30.4933
          39.7544
          39.7544
          39.7544
          39.7544
          30.4933
          30.4933
          39.5582
          39.5582
          39.5581
          39.5579
          30.4933
          30.4933
          30.4933
          30.4933
          30.4933
          30.4933
          30.4933
          30.4933
          30.4933
          39.5091
          39.5094
          39.5095
          39.5095
          30.4933
          30.4933
          39.7317
          39.7317
          39.7317
          39.7317
          30.4933
          30.4933
          39.7664
          39.7665
          39.7665
          39.7664
          30.4933
          30.4933
          39.5711
          39.5711
          39.571
          39.5708
          30.4933
          30.4933
          30.4933
          30.4933
          30.4933
          30.4933
          30.4933
          30.4933
          30.4933
          39.5232
          39.5234
          39.5235
          39.5235
          30.4933
          30.4933
          39.7445
          39.7446
          39.7446
          39.7445
          30.4933
          30.4933
          39.7793
          39.7793
          39.7793
          39.7793
          30.4933
          30.4933
          39.5849
          39.5849
          39.5848
          39.5846
          30.4933
          30.4933
          30.4933
          30.4933
          30.4933
          30.4933
          30.4933
          30.4933
          30.4933
          39.5381
          39.5383
          39.5385
          39.5385
          30.4933
          30.4933
          39.7582
          39.7582
          39.7583
          39.7582
          30.4933
          30.4933
          39.793
          39.793
          39.793
          39.793
          30.4933
          30.4933
          39.5996
          39.5996
          39.5995
          39.5993
          30.4933
          30.4933
          30.4933
          30.4933
          30.4933
          30.4933
          30.4933
          30.4933
          30.4933
          39.554
          39.5542
          39.5543
          39.5544
          30.4933
          30.4933
          39.7727
          39.7728
          39.7728
          39.7728
          30.4933
          30.4933
          39.8075
          39.8076
          39.8076
          39.8075
          30.4933
          30.4933
          39.6152
          39.6152
          39.6151
          39.6149
          30.4933
          30.4933
          30.4933
          30.4933
          30.4933
          30.4933
          30.4933
          30.4933
          30.4933
          39.5707
          39.571
          39.5711
          39.5711
          30.4933
          30.4933
          39.7881
          39.7881
          39.7882
          39.7881
          30.4933
          30.4933
          39.8229
          39.8229
          39.8229
          39.8229
          30.4933
          30.4933
          39.6318
          39.6317
          39.6316
          39.6314
          30.4933
          30.4933
          30.4933
          30.4933
          30.4933
          30.4933
          30.4933
          30.4933
          30.4933
          39.5884
          39.5886
          39.5888
          39.5889
          30.4933
          30.4933
          39.8042
          39.8043
          39.8044
          39.8044
          30.4933
          30.4933
          39.8392
          39.8392
          39.8391
          39.8391
          30.4933
          30.4933
          39.6492
          39.6492
          39.649
          39.6488
          30.4933
          30.4933
          30.4933
          30.4933
          30.4933
          30.4933
          30.4933
          30.4933
          30.4933
          39.6068
          39.6072
          39.6075
          39.6076
          30.4933
          30.4933
          39.8211
          39.8213
          39.8215
          39.8216
          30.4933
          30.4933
          39.8563
          39.8563
          39.8561
          39.856
          30.4933
          30.4933
          39.6677
          39.6675
          39.6672
          39.6669
          30.4933
          30.4933
          30.4933
          30.4933
          30.4933
          30.4933
          30.4933
          30.4933
          30.4933
          39.6259
          39.6264
          39.6273
          39.6276
          30.4933
          30.4933
          39.8384
          39.8389
          39.8397
          39.84
          30.4933
          30.4933
          39.8746
          39.8744
          39.8738
          39.8735
          30.4933
          30.4933
          39.6873
          39.687
          39.6862
          39.6857
          30.4933
          30.4933
          30.4933
          30.4933
          30.4933
          30.4933
          30.4933
          30.4933
          30.4933
          39.6447
          39.6461
          39.6484
          39.6497
          30.4933
          30.4933
          39.8554
          39.8567
          39.8592
          39.8605
          30.4933
          30.4933
          39.8945
          39.8936
          39.892
          39.8911
          30.4933
          30.4933
          39.7091
          39.7078
          39.7055
          39.7041
          30.4933
          30.4933
          30.4933
          30.4933
          30.4933
          30.4933
          30.4933
          30.4933
          30.4933
          39.6614
          39.6644
          39.6726
          39.6756
          30.4933
          30.4933
          39.8698
          39.8731
          39.882
          39.8852
          30.4933
          30.4933
          39.9173
          39.9152
          39.9095
          39.9074
          30.4933
          30.4933
          39.7347
          39.7317
          39.7234
          39.7204
          30.4933
          30.4933
          30.4933
          30.4933
          30.4933
          39.5939
          39.6193
          39.6376
          39.6544
          39.6695
          39.6796
          39.6956
          39.7242
          39.7855
          39.8293
          39.8696
          39.8883
          39.906
          39.929
          39.9653
          39.9723
          39.9528
          39.9381
          39.9266
          39.9142
          39.8834
          39.8432
          39.783
          39.7545
          39.7382
          39.7277
          39.7116
          39.6945
          39.6772
          39.6587
          39.6332
          39.6042
          39.6217
          39.6387
          39.6552
          39.6718
          39.6902
          39.7135
          39.7469
          39.7876
          39.832
          39.8714
          39.9049
          39.932
          39.9563
          39.9743
          39.9812
          39.9761
          39.9633
          39.9461
          39.9215
          39.8881
          39.8465
          39.8061
          39.7724
          39.7486
          39.7295
          39.7122
          39.695
          39.6782
          39.6611
          39.6435
          39.6156
          39.6265
          39.6405
          39.6567
          39.675
          39.6963
          39.7226
          39.755
          39.7936
          39.8369
          39.8847
          39.9283
          39.9609
          39.9849
          40.0006
          40.007
          40.004
          39.9924
          39.9724
          39.9429
          39.9008
          39.8549
          39.8149
          39.7816
          39.7546
          39.7325
          39.7133
          39.6958
          39.6798
          39.6658
          39.6549
          39.624
          39.6285
          39.6414
          39.6574
          39.6762
          39.6983
          39.7252
          39.7576
          39.7957
          39.8396
          39.8928
          39.9426
          39.9769
          40.0011
          40.0165
          40.0228
          40.0201
          40.0086
          39.9879
          39.9565
          39.909
          39.8582
          39.8179
          39.7843
          39.7566
          39.7336
          39.7138
          39.6962
          39.6806
          39.6678
          39.6633
        </DataArray>
      </PointData>
      <CellData>
      </CellData>
      <Points>
        <DataArray type="Float32" NumberOfComponents="3" format="ascii">
          0.039 0.00195 0.0
          0.0377 0.00195 0.0
          0.0364 0.00195 0.0
          0.0351 0.00195 0.0
          0.0338 0.00195 0.0
          0.0325 0.00195 0.0
          0.0312 0.00195 0.0
          0.0299 0.00195 0.0
          0.0286 0.00195 0.0
          0.0273 0.00195 0.0
          0.026 0.00195 0.0
          0.0247 0.00195 0.0
          0.0234 0.00195 0.0
          0.0221 0.00195 0.0
          0.0208 0.00195 0.0
          0.0195 0.00195 0.0
          0.0182 0.00195 0.0
          0.0169 0.00195 0.0
          0.0156 0.00195 0.0
          0.0143 0.00195 0.0
          0.013 0.00195 0.0
          0.0117 0.00195 0.0
          0.0104 0.00195 0.0
          0.0091 0.00195 0.0
          0.0078 0.00195 0.0
          0.0065 0.00195 0.0
          0.0052 0.00195 0.0
          0.0039 0.00195 0.0
          0.0026 0.00195 0.0
          0.0013 0.00195 0.0
          0 0.00195 0.0
          0.039 0.00065 0.0
          0.0377 0.00065 0.0
          0.0364 0.00065 0.0
          0.0351 0.00065 0.0
          0.0338 0.00065 0.0
          0.0325 0.00065 0.0
          0.0312 0.00065 0.0
          0.0299 0.00065 0.0
          0.0286 0.00065 0.0
          0.0273 0.00065 0.0
          0.026 0.00065 0.0
          0.0247 0.00065 0.0
          0.0234 0.00065 0.0
          0.0221 0.00065 0.0
          0.0208 0.00065 0.0
          0.0195 0.00065 0.0
          0.0182 0.00065 0.0
          0.0169 0.00065 0.0
          0.0156 0.00065 0.0
          0.0143 0.00065 0.0
          0.013 0.00065 0.0
          0.0117 0.00065 0.0
          0.0104 0.00065 0.0
          0.0091 0.00065 0.0
          0.0078 0.00065 0.0
          0.0065 0.00065 0.0
          0.0052 0.00065 0.0
          0.0039 0.00065 0.0
          0.0026 0.00065 0.0
          0.0013 0.00065 0.0
          0 0.00065 0.0
          0.039 -0.00065 0.0
          0.0377 -0.00065 0.0
          0.0364 -0.00065 0.0
          0.0351 -0.00065 0.0
          0.0338 -0.00065 0.0
          0.0325 -0.00065 0.0
          0.0312 -0.00065 0.0
          0.0299 -0.00065 0.0
          0.0286 -0.00065 0.0
          0.0273 -0.00065 0.0
          0.026 -0.00065 0.0
          0.0247 -0.00065 0.0
          0.0234 -0.00065 0.0
          0.0221 -0.00065 0.0
          0.0208 -0.00065 0.0
          0.0195 -0.00065 0.0
          0.0182 -0.00065 0.0
          0.0169 -0.00065 0.0
          0.0156 -0.00065 0.0
          0.0143 -0.00065 0.0
          0.013 -0.00065 0.0
          0.0117 -0.00065 0.0
          0.0104 -0.00065 0.0
          0.0091 -0.00065 0.0
          0.0078 -0.00065 0.0
          0.0065 -0.00065 0.0
          0.0052 -0.00065 0.0
          0.0039 -0.00065 0.0
          0.0026 -0.00065 0.0
          0.0013 -0.00065 0.0
          0 -0.00065 0.0
          0.039 -0.00195 0.0
          0.0377 -0.00195 0.0
          0.0364 -0.00195 0.0
          0.0351 -0.00195 0.0
          0.0338 -0.00195 0.0
          0.0325 -0.00195 0.0
          0.0312 -0.00195 0.0
          0.0299 -0.00195 0.0
          0.0286 -0.00195 0.0
          0.0273 -0.00195 0.0
          0.026 -0.00195 0.0
          0.0247 -0.00195 0.0
          0.0234 -0.00195 0.0
          0.0221 -0.00195 0.0
          0.0208 -0.00195 0.0
          0.0195 -0.00195 0.0
          0.0182 -0.00195 0.0
          0.0169 -0.00195 0.0
          0.0156 -0.00195 0.0
          0.0143 -0.00195 0.0
          0.013 -0.00195 0.0
          0.0117 -0.00195 0.0
          0.0104 -0.00195 0.0
          0.0091 -0.00195 0.0
          0.0078 -0.00195 0.0
          0.0065 -0.00195 0.0
          0.0052 -0.00195 0.0
          0.0039 -0.00195 0.0
          0.0026 -0.00195 0.0
          0.0013 -0.00195 0.0
          0 -0.00195 0.0
          0.039 -0.00325 0.0
          0.0377 -0.00325 0.0
          0.0364 -0.00325 0.0
          0.0351 -0.00325 0.0
          0.0338 -0.00325 0.0
          0.0325 -0.00325 0.0
          0.0312 -0.00325 0.0
          0.0299 -0.00325 0.0
          0.0286 -0.00325 0.0
          0.0273 -0.00325 0.0
          0.026 -0.00325 0.0
          0.0247 -0.00325 0.0
          0.0234 -0.00325 0.0
          0.0221 -0.00325 0.0
          0.0208 -0.00325 0.0
          0.0195 -0.00325 0.0
          0.0182 -0.00325 0.0
          0.0169 -0.00325 0.0
          0.0156 -0.00325 0.0
          0.0143 -0.00325 0.0
          0.013 -0.00325 0.0
          0.0117 -0.00325 0.0
          0.0104 -0.00325 0.0
          0.0091 -0.00325 0.0
          0.0078 -0.00325 0.0
          0.0065 -0.00325 0.0
          0.0052 -0.00325 0.0
          0.0039 -0.00325 0.0
          0.0026 -0.00325 0.0
          0.0013 -0.00325 0.0
          0 -0.00325 0.0
          0.039 -0.00455 0.0
          0.0377 -0.00455 0.0
          0.0364 -0.00455 0.0
          0.0351 -0.00455 0.0
          0.0338 -0.00455 0.0
          0.0325 -0.00455 0.0
          0.0312 -0.00455 0.0
          0.0299 -0.00455 0.0
          0.0286 -0.00455 0.0
          0.0273 -0.00455 0.0
          0.026 -0.00455 0.0
          0.0247 -0.00455 0.0
          0.0234 -0.00455 0.0
          0.0221 -0.00455 0.0
          0.0208 -0.00455 0.0
          0.0195 -0.00455 0.0
          0.0182 -0.00455 0.0
          0.0169 -0.00455 0.0
          0.0156 -0.00455 0.0
          0.0143 -0.00455 0.0
          0.013 -0.00455 0.0
          0.0117 -0.00455 0.0
          0.0104 -0.00455 0.0
          0.0091 -0.00455 0.0
          0.0078 -0.00455 0.0
          0.0065 -0.00455 0.0
          0.0052 -0.00455 0.0
          0.0039 -0.00455 0.0
          0.0026 -0.00455 0.0
          0.0013 -0.00455 0.0
          0 -0.00455 0.0
          0.039 -0.00585 0.0
          0.0377 -0.00585 0.0
          0.0364 -0.00585 0.0
          0.0351 -0.00585 0.0
          0.0338 -0.00585 0.0
          0.0325 -0.00585 0.0
          0.0312 -0.00585 0.0
          0.0299 -0.00585 0.0
          0.0286 -0.00585 0.0
          0.0273 -0.00585 0.0
          0.026 -0.00585 0.0
          0.0247 -0.00585 0.0
          0.0234 -0.00585 0.0
          0.0221 -0.00585 0.0
          0.0208 -0.00585 0.0
          0.0195 -0.00585 0.0
          0.0182 -0.00585 0.0
          0.0169 -0.00585 0.0
          0.0156 -0.00585 0.0
          0.0143 -0.00585 0.0
          0.013 -0.00585 0.0
          0.0117 -0.00585 0.0
          0.0104 -0.00585 0.0
          0.0091 -0.00585 0.0
          0.0078 -0.00585 0.0
          0.0065 -0.00585 0.0
          0.0052 -0.00585 0.0
          0.0039 -0.00585 0.0
          0.0026 -0.00585 0.0
          0.0013 -0.00585 0.0
          0 -0.00585 0.0
          0.039 -0.00715 0.0
          0.0377 -0.00715 0.0
          0.0364 -0.00715 0.0
          0.0351 -0.00715 0.0
          0.0338 -0.00715 0.0
          0.0325 -0.00715 0.0
          0.0312 -0.00715 0.0
          0.0299 -0.00715 0.0
          0.0286 -0.00715 0.0
          0.0273 -0.00715 0.0
          0.026 -0.00715 0.0
          0.0247 -0.00715 0.0
          0.0234 -0.00715 0.0
          0.0221 -0.00715 0.0
          0.0208 -0.00715 0.0
          0.0195 -0.00715 0.0
          0.0182 -0.00715 0.0
          0.0169 -0.00715 0.0
          0.0156 -0.00715 0.0
          0.0143 -0.00715 0.0
          0.013 -0.00715 0.0
          0.0117 -0.00715 0.0
          0.0104 -0.00715 0.0
          0.0091 -0.00715 0.0
          0.0078 -0.00715 0.0
          0.0065 -0.00715 0.0
          0.0052 -0.00715 0.0
          0.0039 -0.00715 0.0
          0.0026 -0.00715 0.0
          0.0013 -0.00715 0.0
          0 -0.00715 0.0
          0.039 -0.00845 0.0
          0.0377 -0.00845 0.0
          0.0364 -0.00845 0.0
          0.0351 -0.00845 0.0
          0.0338 -0.00845 0.0
          0.0325 -0.00845 0.0
          0.0312 -0.00845 0.0
          0.0299 -0.00845 0.0
          0.0286 -0.00845 0.0
          0.0273 -0.00845 0.0
          0.026 -0.00845 0.0
          0.0247 -0.00845 0.0
          0.0234 -0.00845 0.0
          0.0221 -0.00845 0.0
          0.0208 -0.00845 0.0
          0.0195 -0.00845 0.0
          0.0182 -0.00845 0.0
          0.0169 -0.00845 0.0
          0.0156 -0.00845 0.0
          0.0143 -0.00845 0.0
          0.013 -0.00845 0.0
          0.0117 -0.00845 0.0
          0.0104 -0.00845 0.0
          0.0091 -0.00845 0.0
          0.0078 -0.00845 0.0
          0.0065 -0.00845 0.0
          0.0052 -0.00845 0.0
          0.0039 -0.00845 0.0
          0.0026 -0.00845 0.0
          0.0013 -0.00845 0.0
          0 -0.00845 0.0
          0.039 -0.00975 0.0
          0.0377 -0.00975 0.0
          0.0364 -0.00975 0.0
          0.0351 -0.00975 0.0
          0.0338 -0.00975 0.0
          0.0325 -0.00975 0.0
          0.0312 -0.00975 0.0
          0.0299 -0.00975 0.0
          0.0286 -0.00975 0.0
          0.0273 -0.00975 0.0
          0.026 -0.00975 0.0
          0.0247 -0.00975 0.0
          0.0234 -0.00975 0.0
          0.0221 -0.00975 0.0
          0.0208 -0.00975 0.0
          0.0195 -0.00975 0.0
          0.0182 -0.00975 0.0
          0.0169 -0.00975 0.0
          0.0156 -0.00975 0.0
          0.0143 -0.00975 0.0
          0.013 -0.00975 0.0
          0.0117 -0.00975 0.0
          0.0104 -0.00975 0.0
          0.0091 -0.00975 0.0
          0.0078 -0.00975 0.0
          0.0065 -0.00975 0.0
          0.0052 -0.00975 0.0
          0.0039 -0.00975 0.0
          0.0026 -0.00975 0.0
          0.0013 -0.00975 0.0
          0 -0.00975 0.0
          0.039 -0.01105 0.0
          0.0377 -0.01105 0.0
          0.0364 -0.01105 0.0
          0.0351 -0.01105 0.0
          0.0338 -0.01105 0.0
          0.0325 -0.01105 0.0
          0.0312 -0.01105 0.0
          0.0299 -0.01105 0.0
          0.0286 -0.01105 0.0
          0.0273 -0.01105 0.0
          0.026 -0.01105 0.0
          0.0247 -0.01105 0.0
          0.0234 -0.01105 0.0
          0.0221 -0.01105 0.0
          0.0208 -0.01105 0.0
          0.0195 -0.01105 0.0
          0.0182 -0.01105 0.0
          0.0169 -0.01105 0.0
          0.0156 -0.01105 0.0
          0.0143 -0.01105 0.0
          0.013 -0.01105 0.0
          0.0117 -0.01105 0.0
          0.0104 -0.01105 0.0
          0.0091 -0.01105 0.0
          0.0078 -0.01105 0.0
          0.0065 -0.01105 0.0
          0.0052 -0.01105 0.0
          0.0039 -0.01105 0.0
          0.0026 -0.01105 0.0
          0.0013 -0.01105 0.0
          0 -0.01105 0.0
          0.039 -0.01235 0.0
          0.0377 -0.01235 0.0
          0.0364 -0.01235 0.0
          0.0351 -0.01235 0.0
          0.0338 -0.01235 0.0
          0.0325 -0.01235 0.0
          0.0312 -0.01235 0.0
          0.0299 -0.01235 0.0
          0.0286 -0.01235 0.0
          0.0273 -0.01235 0.0
          0.026 -0.01235 0.0
          0.0247 -0.01235 0.0
          0.0234 -0.01235 0.0
          0.0221 -0.01235 0.0
          0.0208 -0.01235 0.0
          0.0195 -0.01235 0.0
          0.0182 -0.01235 0.0
          0.0169 -0.01235 0.0
          0.0156 -0.01235 0.0
          0.0143 -0.01235 0.0
          0.013 -0.01235 0.0
          0.0117 -0.01235 0.0
          0.0104 -0.01235 0.0
          0.0091 -0.01235 0.0
          0.0078 -0.01235 0.0
          0.0065 -0.01235 0.0
          0.0052 -0.01235 0.0
          0.0039 -0.01235 0.0
          0.0026 -0.01235 0.0
          0.0013 -0.01235 0.0
          0 -0.01235 0.0
          0.039 -0.01365 0.0
          0.0377 -0.01365 0.0
          0.0364 -0.01365 0.0
          0.0351 -0.01365 0.0
          0.0338 -0.01365 0.0
          0.0325 -0.01365 0.0
          0.0312 -0.01365 0.0
          0.0299 -0.01365 0.0
          0.0286 -0.01365 0.0
          0.0273 -0.01365 0.0
          0.026 -0.01365 0.0
          0.0247 -0.01365 0.0
          0.0234 -0.01365 0.0
          0.0221 -0.01365 0.0
          0.0208 -0.01365 0.0
          0.0195 -0.01365 0.0
          0.0182 -0.01365 0.0
          0.0169 -0.01365 0.0
          0.0156 -0.01365 0.0
          0.0143 -0.01365 0.0
          0.013 -0.01365 0.0
          0.0117 -0.01365 0.0
          0.0104 -0.01365 0.0
          0.0091 -0.01365 0.0
          0.0078 -0.01365 0.0
          0.0065 -0.01365 0.0
          0.0052 -0.01365 0.0
          0.0039 -0.01365 0.0
          0.0026 -0.01365 0.0
          0.0013 -0.01365 0.0
          0 -0.01365 0.0
          0.039 -0.01495 0.0
          0.0377 -0.01495 0.0
          0.0364 -0.01495 0.0
          0.0351 -0.01495 0.0
          0.0338 -0.01495 0.0
          0.0325 -0.01495 0.0
          0.0312 -0.01495 0.0
          0.0299 -0.01495 0.0
          0.0286 -0.01495 0.0
          0.0273 -0.01495 0.0
          0.026 -0.01495 0.0
          0.0247 -0.01495 0.0