<?xml version="1.0"?>
<VTKFile type="UnstructuredGrid" version="0.1" byte_order="LittleEndian">
  <UnstructuredGrid>
    <Piece NumberOfPoints="961" NumberOfCells="900">
      <PointData Scalars="Temperature">
        <DataArray type="Float32" Name="Temperature" format="ascii">
          41.9135
          41.9135
          41.9135
          41.9135
          41.9135
          41.9135
          41.9135
          41.9135
          41.9135
          41.9135
          41.9135
          41.9135
          41.9135
          41.9135
          41.9135
          41.9135
          41.9135
          41.9135
          41.9135
          41.9135
          41.9135
          41.9135
          41.9135
          41.9135
          41.9135
          41.9135
          41.9135
          41.9135
          41.9135
          41.9135
          41.9135
          41.9135
          41.9135
          41.9135
          41.9135
          41.9135
          41.9135
          41.9135
          41.9135
          41.9135
          41.9135
          41.9135
          41.9135
          41.9135
          41.9135
          41.9135
          41.9135
          41.9135
          41.9135
          41.9135
          41.9135
          41.9135
          41.9135
          41.9135
          41.9135
          41.9135
          41.9135
          41.9135
          41.9135
          41.9135
          41.9135
          41.9135
          41.9135
          41.9135
          41.9135
          41.9135
          41.9135
          41.9135
          41.9135
          41.9135
          41.9135
          41.9135
          41.9135
          41.9135
          41.9135
          41.9135
          41.9135
          41.9135
          41.9135
          41.9135
          41.9135
          41.9135
          41.9135
          41.9135
          41.9135
          41.9135
          41.9135
          41.9135
          41.9135
          41.9135
          41.9135
          41.9135
          41.9135
          41.9135
          41.9135
          41.9135
          41.9135
          61.7531
          61.7549
          61.7553
          61.7544
          41.9135
          41.9135
          62.0678
          62.0688
          62.0688
          62.0678
          41.9135
          41.9135
          62.1046
          62.1056
          62.1056
          62.1046
          41.9135
          41.9135
          61.8296
          61.8305
          61.8302
          61.8285
          41.9135
          41.9135
          41.9135
          41.9135
          41.9135
          41.9135
          41.9135
          41.9135
          41.9135
          61.7558
          61.7565
          61.7568
          61.7567
          41.9135
          41.9135
          62.07
          62.0702
          62.0702
          62.07
          41.9135
          41.9135
          62.1068
          62.107
          62.107
          62.1068
          41.9135
          41.9135
          61.8319
          61.832
          61.8317
          61.8311
          41.9135
          41.9135
          41.9135
          41.9135
          41.9135
          41.9135
          41.9135
          41.9135
          41.9135
          61.7585
          61.7591
          61.7594
          61.7594
          41.9135
          41.9135
          62.0723
          62.0724
          62.0724
          62.0723
          41.9135
          41.9135
          62.1091
          62.1092
          62.1092
          62.1091
          41.9135
          41.9135
          61.8345
          61.8345
          61.8343
          61.8338
          41.9135
          41.9135
          41.9135
          41.9135
          41.9135
          41.9135
          41.9135
          41.9135
          41.9135
          61.7619
          61.7625
          61.7628
          61.7628
          41.9135
          41.9135
          62.0752
          62.0753
          62.0753
          62.0752
          41.9135
          41.9135
          62.112
          62.1121
          62.1121
          62.112
          41.9135
          41.9135
          61.8378
          61.8378
          61.8376
          61.8371
          41.9135
          41.9135
          41.9135
          41.9135
          41.9135
          41.9135
          41.9135
          41.9135
          41.9135
          61.766
          61.7666
          61.7669
          61.7669
          41.9135
          41.9135
          62.0785
          62.0786
          62.0786
          62.0785
          41.9135
          41.9135
          62.1154
          62.1154
          62.1154
          62.1153
          41.9135
          41.9135
          61.8418
          61.8418
          61.8415
          61.8411
          41.9135
          41.9135
          41.9135
          41.9135
          41.9135
          41.9135
          41.9135
          41.9135
          41.9135
          61.7708
          61.7714
          61.7717
          61.7717
          41.9135
          41.9135
          62.0824
          62.0825
          62.0825
          62.0824
          41.9135
          41.9135
          62.1192
          62.1193
          62.1193
          62.1192
          41.9135
          41.9135
          61.8464
          61.8464
          61.8462
          61.8457
          41.9135
          41.9135
          41.9135
          41.9135
          41.9135
          41.9135
          41.9135
          41.9135
          41.9135
          61.7763
          61.7768
          61.7771
          61.7772
          41.9135
          41.9135
          62.0868
          62.0869
          62.0869
          62.0868
          41.9135
          41.9135
          62.1236
          62.1237
          62.1237
          62.1236
          41.9135
          41.9135
          61.8517
          61.8517
          61.8515
          61.851
          41.9135
          41.9135
          41.9135
          41.9135
          41.9135
          41.9135
          41.9135
          41.9135
          41.9135
          61.7825
          61.783
          61.7833
          61.7833
          41.9135
          41.9135
          62.0917
          62.0918
          62.0918
          62.0917
          41.9135
          41.9135
          62.1285
          62.1286
          62.1286
          62.1285
          41.9135
          41.9135
          61.8577
          61.8577
          61.8574
          61.857
          41.9135
          41.9135
          41.9135
          41.9135
          41.9135
          41.9135
          41.9135
          41.9135
          41.9135
          61.7893
          61.7899
          61.7902
          61.7902
          41.9135
          41.9135
          62.0971
          62.0972
          62.0972
          62.0971
          41.9135
          41.9135
          62.1339
          62.134
          62.134
          62.1339
          41.9135
          41.9135
          61.8643
          61.8643
          61.864
          61.8636
          41.9135
          41.9135
          41.9135
          41.9135
          41.9135
          41.9135
          41.9135
          41.9135
          41.9135
          61.7969
          61.7974
          61.7977
          61.7977
          41.9135
          41.9135
          62.103
          62.1031
          62.1031
          62.1031
          41.9135
          41.9135
          62.1399
          62.1399
          62.1399
          62.1399
          41.9135
          41.9135
          61.8715
          61.8715
          61.8713
          61.8708
          41.9135
          41.9135
          41.9135
          41.9135
          41.9135
          41.9135
          41.9135
          41.9135
          41.9135
          61.8051
          61.8057
          61.806
          61.806
          41.9135
          41.9135
          62.1095
          62.1095
          62.1095
          62.1095
          41.9135
          41.9135
          62.1463
          62.1464
          62.1464
          62.1463
          41.9135
          41.9135
          61.8794
          61.8794
          61.8792
          61.8788
          41.9135
          41.9135
          41.9135
          41.9135
          41.9135
          41.9135
          41.9135
          41.9135
          41.9135
          61.8141
          61.8146
          61.8149
          61.8149
          41.9135
          41.9135
          62.1164
          62.1165
          62.1165
          62.1164
          41.9135
          41.9135
          62.1533
          62.1533
          62.1533
          62.1533
          41.9135
          41.9135
          61.888
          61.888
          61.8878
          61.8873
          41.9135
          41.9135
          41.9135
          41.9135
          41.9135
          41.9135
          41.9135
          41.9135
          41.9135
          61.8237
          61.8242
          61.8245
          61.8246
          41.9135
          41.9135
          62.1239
          62.1239
          62.1239
          62.1239
          41.9135
          41.9135
          62.1607
          62.1608
          62.1608
          62.1607
          41.9135
          41.9135
          61.8972
          61.8972
          61.897
          61.8966
          41.9135
          41.9135
          41.9135
          41.9135
          41.9135
          41.9135
          41.9135
          41.9135
          41.9135
          61.834
          61.8346
          61.8348
          61.8349
          41.9135
          41.9135
          62.1318
          62.1319
          62.1319
          62.1318
          41.9135
          41.9135
          62.1687
          62.1688
          62.1688
          62.1687
          41.9135
          41.9135
          61.9071
          61.9071
          61.9069
          61.9064
          41.9135
          41.9135
          41.9135
          41.9135
          41.9135
          41.9135
          41.9135
          41.9135
          41.9135
          61.845
          61.8456
          61.8458
          61.8459
          41.9135
          41.9135
          62.1403
          62.1404
          62.1404
          62.1403
          41.9135
          41.9135
          62.1772
          62.1772
          62.1772
          62.1772
          41.9135
          41.9135
          61.9177
          61.9177
          61.9174
          61.917
          41.9135
          41.9135
          41.9135
          41.9135
          41.9135
          41.9135
          41.9135
          41.9135
          41.9135
          61.8567
          61.8573
          61.8575
          61.8576
          41.9135
          41.9135
          62.1493
          62.1494
          62.1494
          62.1493
          41.9135
          41.9135
          62.1862
          62.1862
          62.1862
          62.1862
          41.9135
          41.9135
          61.9289
          61.9288
          61.9286
          61.9282
          41.9135
          41.9135
          41.9135
          41.9135
          41.9135
          41.9135
          41.9135
          41.9135
          41.9135
          61.8691
          61.8697
          61.8699
          61.87
          41.9135
          41.9135
          62.1588
          62.1589
          62.1589
          62.1588
          41.9135
          41.9135
          62.1957
          62.1957
          62.1957
          62.1957
          41.9135
          41.9135
          61.9407
          61.9407
          61.9405
          61.94
          41.9135
          41.9135
          41.9135
          41.9135
          41.9135
          41.9135
          41.9135
          41.9135
          41.9135
          61.8822
          61.8827
          61.883
          61.8831
          41.9135
          41.9135
          62.1688
          62.1689
          62.1689
          62.1688
          41.9135
          41.9135
          62.2057
          62.2058
          62.2057
          62.2057
          41.9135
          41.9135
          61.9532
          61.9532
          61.953
          61.9525
          41.9135
          41.9135
          41.9135
          41.9135
          41.9135
          41.9135
          41.9135
          41.9135
          41.9135
          61.896
          61.8965
          61.8968
          61.8969
          41.9135
          41.9135
          62.1793
          62.1794
          62.1794
          62.1794
          41.9135
          41.9135
          62.2162
          62.2163
          62.2163
          62.2162
          41.9135
          41.9135
          61.9664
          61.9664
          61.9661
          61.9657
          41.9135
          41.9135
          41.9135
          41.9135
          41.9135
          41.9135
          41.9135
          41.9135
          41.9135
          61.9104
          61.9109
          61.9113
          61.9114
          41.9135
          41.9135
          62.1903
          62.1904
          62.1905
          62.1904
          41.9135
          41.9135
          62.2273
          62.2273
          62.2273
          62.2272
          41.9135
          41.9135
          61.9803
          61.9802
          61.9799
          61.9794
          41.9135
          41.9135
          41.9135
          41.9135
          41.9135
          41.9135
          41.9135
          41.9135
          41.9135
          61.9253
          61.926
          61.9265
          61.9267
          41.9135
          41.9135
          62.2016
          62.2018
          62.2021
          62.2022
          41.9135
          41.9135
          62.239
          62.239
          62.2388
          62.2386
          41.9135
          41.9135
          61.9949
          61.9947
          61.9942
          61.9937
          41.9135
          41.9135
          41.9135
          41.9135
          41.9135
          41.9135
          41.9135
          41.9135
          41.9135
          61.9405
          61.9414
          61.9427
          61.9432
          41.9135
          41.9135
          62.213
          62.2135
          62.2145
          62.2148
          41.9135
          41.9135
          62.2515
          62.2512
          62.2506
          62.2502
          41.9135
          41.9135
          62.0107
          62.0102
          62.009
          62.0081
          41.9135
          41.9135
          41.9135
          41.9135
          41.9135
          41.9135
          41.9135
          41.9135
          41.9135
          61.9547
          61.9569
          61.9602
          61.962
          41.9135
          41.9135
          62.2235
          62.2251
          62.228
          62.2295
          41.9135
          41.9135
          62.2654
          62.2644
          62.2625
          62.2614
          41.9135
          41.9135
          62.0287
          62.0269
          62.0236
          62.0216
          41.9135
          41.9135
          41.9135
          41.9135
          41.9135
          41.9135
          41.9135
          41.9135
          41.9135
          61.9653
          61.9697
          61.9815
          61.9857
          41.9135
          41.9135
          62.2307
          62.2345
          62.2447
          62.2484
          41.9135
          41.9135
          62.2824
          62.28
          62.2731
          62.2705
          41.9135
          41.9135
          62.0516
          62.0474
          62.0357
          62.0313
          41.9135
          41.9135
          41.9135
          41.9135
          41.9135
          61.7924
          61.8475
          61.8863
          61.9214
          61.9589
          61.9794
          62.0023
          62.0372
          62.11
          62.1641
          62.2183
          62.2432
          62.2636
          62.2868
          62.3219
          62.3294
          62.312
          62.2975
          62.2838
          62.2658
          62.2219
          62.1722
          62.1018
          62.0675
          62.0446
          62.0238
          61.9858
          61.9515
          61.9163
          61.8776
          61.8225
          61.8148
          61.8528
          61.8882
          61.9222
          61.9542
          61.9855
          62.0189
          62.0617
          62.112
          62.1664
          62.2146
          62.2548
          62.2858
          62.3119
          62.3306
          62.338
          62.3328
          62.3188
          62.2984
          62.2678
          62.2263
          62.1754
          62.1262
          62.0837
          62.0502
          62.0186
          61.9862
          61.9523
          61.9184
          61.8829
          61.845
          61.8398
          61.863
          61.8914
          61.9228
          61.9554
          61.9895
          62.027
          62.0697
          62.1178
          62.1701
          62.2258
          62.2757
          62.3126
          62.3391
          62.3561
          62.3629
          62.3593
          62.3458
          62.3222
          62.2871
          62.2379
          62.1836
          62.1347
          62.0918
          62.054
          62.0194
          61.986
          61.9533
          61.9217
          61.8932
          61.87
          61.8581
          61.8673
          61.893
          61.9234
          61.9561
          61.991
          62.0293
          62.0721
          62.1198
          62.1724
          62.2333
          62.2892
          62.3279
          62.3549
          62.3717
          62.3784
          62.375
          62.3613
          62.337
          62.3001
          62.2457
          62.1868
          62.1375
          62.0941
          62.0554
          62.0199
          61.9862
          61.9538
          61.9233
          61.8975
          61.8883
        </DataArray>
      </PointData>
      <CellData>
      </CellData>
      <Points>
        <DataArray type="Float32" NumberOfComponents="3" format="ascii">
          0.039 0.00195 0.0
          0.0377 0.00195 0.0
          0.0364 0.00195 0.0
          0.0351 0.00195 0.0
          0.0338 0.00195 0.0
          0.0325 0.00195 0.0
          0.0312 0.00195 0.0
          0.0299 0.00195 0.0
          0.0286 0.00195 0.0
          0.0273 0.00195 0.0
          0.026 0.00195 0.0
          0.0247 0.00195 0.0
          0.0234 0.00195 0.0
          0.0221 0.00195 0.0
          0.0208 0.00195 0.0
          0.0195 0.00195 0.0
          0.0182 0.00195 0.0
          0.0169 0.00195 0.0
          0.0156 0.00195 0.0
          0.0143 0.00195 0.0
          0.013 0.00195 0.0
          0.0117 0.00195 0.0
          0.0104 0.00195 0.0
          0.0091 0.00195 0.0
          0.0078 0.00195 0.0
          0.0065 0.00195 0.0
          0.0052 0.00195 0.0
          0.0039 0.00195 0.0
          0.0026 0.00195 0.0
          0.0013 0.00195 0.0
          0 0.00195 0.0
          0.039 0.00065 0.0
          0.0377 0.00065 0.0
          0.0364 0.00065 0.0
          0.0351 0.00065 0.0
          0.0338 0.00065 0.0
          0.0325 0.00065 0.0
          0.0312 0.00065 0.0
          0.0299 0.00065 0.0
          0.0286 0.00065 0.0
          0.0273 0.00065 0.0
          0.026 0.00065 0.0
          0.0247 0.00065 0.0
          0.0234 0.00065 0.0
          0.0221 0.00065 0.0
          0.0208 0.00065 0.0
          0.0195 0.00065 0.0
          0.0182 0.00065 0.0
          0.0169 0.00065 0.0
          0.0156 0.00065 0.0
          0.0143 0.00065 0.0
          0.013 0.00065 0.0
          0.0117 0.00065 0.0
          0.0104 0.00065 0.0
          0.0091 0.00065 0.0
          0.0078 0.00065 0.0
          0.0065 0.00065 0.0
          0.0052 0.00065 0.0
          0.0039 0.00065 0.0
          0.0026 0.00065 0.0
          0.0013 0.00065 0.0
          0 0.00065 0.0
          0.039 -0.00065 0.0
          0.0377 -0.00065 0.0
          0.0364 -0.00065 0.0
          0.0351 -0.00065 0.0
          0.0338 -0.00065 0.0
          0.0325 -0.00065 0.0
          0.0312 -0.00065 0.0
          0.0299 -0.00065 0.0
          0.0286 -0.00065 0.0
          0.0273 -0.00065 0.0
          0.026 -0.00065 0.0
          0.0247 -0.00065 0.0
          0.0234 -0.00065 0.0
          0.0221 -0.00065 0.0
          0.0208 -0.00065 0.0
          0.0195 -0.00065 0.0
          0.0182 -0.00065 0.0
          0.0169 -0.00065 0.0
          0.0156 -0.00065 0.0
          0.0143 -0.00065 0.0
          0.013 -0.00065 0.0
          0.0117 -0.00065 0.0
          0.0104 -0.00065 0.0
          0.0091 -0.00065 0.0
          0.0078 -0.00065 0.0
          0.0065 -0.00065 0.0
          0.0052 -0.00065 0.0
          0.0039 -0.00065 0.0
          0.0026 -0.00065 0.0
          0.0013 -0.00065 0.0
          0 -0.00065 0.0
          0.039 -0.00195 0.0
          0.0377 -0.00195 0.0
          0.0364 -0.00195 0.0
          0.0351 -0.00195 0.0
          0.0338 -0.00195 0.0
          0.0325 -0.00195 0.0
          0.0312 -0.00195 0.0
          0.0299 -0.00195 0.0
          0.0286 -0.00195 0.0
          0.0273 -0.00195 0.0
          0.026 -0.00195 0.0
          0.0247 -0.00195 0.0
          0.0234 -0.00195 0.0
          0.0221 -0.00195 0.0
          0.0208 -0.00195 0.0
          0.0195 -0.00195 0.0
          0.0182 -0.00195 0.0
          0.0169 -0.00195 0.0
          0.0156 -0.00195 0.0
          0.0143 -0.00195 0.0
          0.013 -0.00195 0.0
          0.0117 -0.00195 0.0
          0.0104 -0.00195 0.0
          0.0091 -0.00195 0.0
          0.0078 -0.00195 0.0
          0.0065 -0.00195 0.0
          0.0052 -0.00195 0.0
          0.0039 -0.00195 0.0
          0.0026 -0.00195 0.0
          0.0013 -0.00195 0.0
          0 -0.00195 0.0
          0.039 -0.00325 0.0
          0.0377 -0.00325 0.0
          0.0364 -0.00325 0.0
          0.0351 -0.00325 0.0
          0.0338 -0.00325 0.0
          0.0325 -0.00325 0.0
          0.0312 -0.00325 0.0
          0.0299 -0.00325 0.0
          0.0286 -0.00325 0.0
          0.0273 -0.00325 0.0
          0.026 -0.00325 0.0
          0.0247 -0.00325 0.0
          0.0234 -0.00325 0.0
          0.0221 -0.00325 0.0
          0.0208 -0.00325 0.0
          0.0195 -0.00325 0.0
          0.0182 -0.00325 0.0
          0.0169 -0.00325 0.0
          0.0156 -0.00325 0.0
          0.0143 -0.00325 0.0
          0.013 -0.00325 0.0
          0.0117 -0.00325 0.0
          0.0104 -0.00325 0.0
          0.0091 -0.00325 0.0
          0.0078 -0.00325 0.0
          0.0065 -0.00325 0.0
          0.0052 -0.00325 0.0
          0.0039 -0.00325 0.0
          0.0026 -0.00325 0.0
          0.0013 -0.00325 0.0
          0 -0.00325 0.0
          0.039 -0.00455 0.0
          0.0377 -0.00455 0.0
          0.0364 -0.00455 0.0
          0.0351 -0.00455 0.0
          0.0338 -0.00455 0.0
          0.0325 -0.00455 0.0
          0.0312 -0.00455 0.0
          0.0299 -0.00455 0.0
          0.0286 -0.00455 0.0
          0.0273 -0.00455 0.0
          0.026 -0.00455 0.0
          0.0247 -0.00455 0.0
          0.0234 -0.00455 0.0
          0.0221 -0.00455 0.0
          0.0208 -0.00455 0.0
          0.0195 -0.00455 0.0
          0.0182 -0.00455 0.0
          0.0169 -0.00455 0.0
          0.0156 -0.00455 0.0
          0.0143 -0.00455 0.0
          0.013 -0.00455 0.0
          0.0117 -0.00455 0.0
          0.0104 -0.00455 0.0
          0.0091 -0.00455 0.0
          0.0078 -0.00455 0.0
          0.0065 -0.00455 0.0
          0.0052 -0.00455 0.0
          0.0039 -0.00455 0.0
          0.0026 -0.00455 0.0
          0.0013 -0.00455 0.0
          0 -0.00455 0.0
          0.039 -0.00585 0.0
          0.0377 -0.00585 0.0
          0.0364 -0.00585 0.0
          0.0351 -0.00585 0.0
          0.0338 -0.00585 0.0
          0.0325 -0.00585 0.0
          0.0312 -0.00585 0.0
          0.0299 -0.00585 0.0
          0.0286 -0.00585 0.0
          0.0273 -0.00585 0.0
          0.026 -0.00585 0.0
          0.0247 -0.00585 0.0
          0.0234 -0.00585 0.0
          0.0221 -0.00585 0.0
          0.0208 -0.00585 0.0
          0.0195 -0.00585 0.0
          0.0182 -0.00585 0.0
          0.0169 -0.00585 0.0
          0.0156 -0.00585 0.0
          0.0143 -0.00585 0.0
          0.013 -0.00585 0.0
          0.0117 -0.00585 0.0
          0.0104 -0.00585 0.0
          0.0091 -0.00585 0.0
          0.0078 -0.00585 0.0
          0.0065 -0.00585 0.0
          0.0052 -0.00585 0.0
          0.0039 -0.00585 0.0
          0.0026 -0.00585 0.0
          0.0013 -0.00585 0.0
          0 -0.00585 0.0
          0.039 -0.00715 0.0
          0.0377 -0.00715 0.0
          0.0364 -0.00715 0.0
          0.0351 -0.00715 0.0
          0.0338 -0.00715 0.0
          0.0325 -0.00715 0.0
          0.0312 -0.00715 0.0
          0.0299 -0.00715 0.0
          0.0286 -0.00715 0.0
          0.0273 -0.00715 0.0
          0.026 -0.00715 0.0
          0.0247 -0.00715 0.0
          0.0234 -0.00715 0.0
          0.0221 -0.00715 0.0
          0.0208 -0.00715 0.0
          0.0195 -0.00715 0.0
          0.0182 -0.00715 0.0
          0.0169 -0.00715 0.0
          0.0156 -0.00715 0.0
          0.0143 -0.00715 0.0
          0.013 -0.00715 0.0
          0.0117 -0.00715 0.0
          0.0104 -0.00715 0.0
          0.0091 -0.00715 0.0
          0.0078 -0.00715 0.0
          0.0065 -0.00715 0.0
          0.0052 -0.00715 0.0
          0.0039 -0.00715 0.0
          0.0026 -0.00715 0.0
          0.0013 -0.00715 0.0
          0 -0.00715 0.0
          0.039 -0.00845 0.0
          0.0377 -0.00845 0.0
          0.0364 -0.00845 0.0
          0.0351 -0.00845 0.0
          0.0338 -0.00845 0.0
          0.0325 -0.00845 0.0
          0.0312 -0.00845 0.0
          0.0299 -0.00845 0.0
          0.0286 -0.00845 0.0
          0.0273 -0.00845 0.0
          0.026 -0.00845 0.0
          0.0247 -0.00845 0.0
          0.0234 -0.00845 0.0
          0.0221 -0.00845 0.0
          0.0208 -0.00845 0.0
          0.0195 -0.00845 0.0
          0.0182 -0.00845 0.0
          0.0169 -0.00845 0.0
          0.0156 -0.00845 0.0
          0.0143 -0.00845 0.0
          0.013 -0.00845 0.0
          0.0117 -0.00845 0.0
          0.0104 -0.00845 0.0
          0.0091 -0.00845 0.0
          0.0078 -0.00845 0.0
          0.0065 -0.00845 0.0
          0.0052 -0.00845 0.0
          0.0039 -0.00845 0.0
          0.0026 -0.00845 0.0
          0.0013 -0.00845 0.0
          0 -0.00845 0.0
          0.039 -0.00975 0.0
          0.0377 -0.00975 0.0
          0.0364 -0.00975 0.0
          0.0351 -0.00975 0.0
          0.0338 -0.00975 0.0
          0.0325 -0.00975 0.0
          0.0312 -0.00975 0.0
          0.0299 -0.00975 0.0
          0.0286 -0.00975 0.0
          0.0273 -0.00975 0.0
          0.026 -0.00975 0.0
          0.0247 -0.00975 0.0
          0.0234 -0.00975 0.0
          0.0221 -0.00975 0.0
          0.0208 -0.00975 0.0
          0.0195 -0.00975 0.0
          0.0182 -0.00975 0.0
          0.0169 -0.00975 0.0
          0.0156 -0.00975 0.0
          0.0143 -0.00975 0.0
          0.013 -0.00975 0.0
          0.0117 -0.00975 0.0
          0.0104 -0.00975 0.0
          0.0091 -0.00975 0.0
          0.0078 -0.00975 0.0
          0.0065 -0.00975 0.0
          0.0052 -0.00975 0.0
          0.0039 -0.00975 0.0
          0.0026 -0.00975 0.0
          0.0013 -0.00975 0.0
          0 -0.00975 0.0
          0.039 -0.01105 0.0
          0.0377 -0.01105 0.0
          0.0364 -0.01105 0.0
          0.0351 -0.01105 0.0
          0.0338 -0.01105 0.0
          0.0325 -0.01105 0.0
          0.0312 -0.01105 0.0
          0.0299 -0.01105 0.0
          0.0286 -0.01105 0.0
          0.0273 -0.01105 0.0
          0.026 -0.01105 0.0
          0.0247 -0.01105 0.0
          0.0234 -0.01105 0.0
          0.0221 -0.01105 0.0
          0.0208 -0.01105 0.0
          0.0195 -0.01105 0.0
          0.0182 -0.01105 0.0
          0.0169 -0.01105 0.0
          0.0156 -0.01105 0.0
          0.0143 -0.01105 0.0
          0.013 -0.01105 0.0
          0.0117 -0.01105 0.0
          0.0104 -0.01105 0.0
          0.0091 -0.01105 0.0
          0.0078 -0.01105 0.0
          0.0065 -0.01105 0.0
          0.0052 -0.01105 0.0
          0.0039 -0.01105 0.0
          0.0026 -0.01105 0.0
          0.0013 -0.01105 0.0
          0 -0.01105 0.0
          0.039 -0.01235 0.0
          0.0377 -0.01235 0.0
          0.0364 -0.01235 0.0
          0.0351 -0.01235 0.0
          0.0338 -0.01235 0.0
          0.0325 -0.01235 0.0
          0.0312 -0.01235 0.0
          0.0299 -0.01235 0.0
          0.0286 -0.01235 0.0
          0.0273 -0.01235 0.0
          0.026 -0.01235 0.0
          0.0247 -0.01235 0.0
          0.0234 -0.01235 0.0
          0.0221 -0.01235 0.0
          0.0208 -0.01235 0.0
          0.0195 -0.01235 0.0
          0.0182 -0.01235 0.0
          0.0169 -0.01235 0.0
          0.0156 -0.01235 0.0
          0.0143 -0.01235 0.0
          0.013 -0.01235 0.0
          0.0117 -0.01235 0.0
          0.0104 -0.01235 0.0
          0.0091 -0.01235 0.0
          0.0078 -0.01235 0.0
          0.0065 -0.01235 0.0
          0.0052 -0.01235 0.0
          0.0039 -0.01235 0.0
          0.0026 -0.01235 0.0
          0.0013 -0.01235 0.0
          0 -0.01235 0.0
          0.039 -0.01365 0.0
          0.0377 -0.01365 0.0
          0.0364 -0.01365 0.0
          0.0351 -0.01365 0.0
          0.0338 -0.01365 0.0
          0.0325 -0.01365 0.0
          0.0312 -0.01365 0.0
          0.0299 -0.01365 0.0
          0.0286 -0.01365 0.0
          0.0273 -0.01365 0.0
          0.026 -0.01365 0.0
          0.0247 -0.01365 0.0
          0.0234 -0.01365 0.0
          0.0221 -0.01365 0.0
          0.0208 -0.01365 0.0
          0.0195 -0.01365 0.0
          0.0182 -0.01365 0.0
          0.0169 -0.01365 0.0
          0.0156 -0.01365 0.0
          0.0143 -0.01365 0.0
          0.013 -0.01365 0.0
          0.0117 -0.01365 0.0
          0.0104 -0.01365 0.0
          0.0091 -0.01365 0.0
          0.0078 -0.01365 0.0
          0.0065 -0.01365 0.0
          0.0052 -0.01365 0.0
          0.0039 -0.01365 0.0
          0.0026 -0.01365 0.0
          0.0013 -0.01365 0.0
          0 -0.01365 0.0
          0.039 -0.01495 0.0
          0.0377 -0.01495 0.0
          0.0364 -0.01495 0.0
          0.0351 -0.01495 0.0
          0.0338 -0.01495 0.0
          0.0325 -0.01495 0.0
          0.0312 -0.01495 0.0
          0.0299 -0.01495 0.0
          0.0286 -0.01495 0.0
          0.0273 -0.01495 0.0
          0.026 -0.01495 0.0
          0.0247 -0.01495 0.0
          0.0234 -0.01495 0.0