<?xml version="1.0"?>
<VTKFile type="UnstructuredGrid" version="0.1" byte_order="LittleEndian">
  <UnstructuredGrid>
    <Piece NumberOfPoints="961" NumberOfCells="900">
      <PointData Scalars="Temperature">
        <DataArray type="Float32" Name="Temperature" format="ascii">
          21.0003
          21.0135
          21.0275
          21.0416
          21.0538
          21.0624
          21.067
          21.0704
          21.075
          21.0824
          21.0906
          21.0967
          21.0987
          21.0977
          21.0966
          21.0977
          21.1009
          21.1032
          21.1018
          21.0959
          21.088
          21.0809
          21.0767
          21.0737
          21.0692
          21.0606
          21.0485
          21.0348
          21.0219
          21.0105
          21.0003
          21.0131
          21.5461
          22.1283
          22.7244
          23.2533
          23.6008
          23.7769
          23.8785
          24.0638
          24.3777
          24.7497
          25.016
          25.0928
          25.0204
          24.9505
          25.0001
          25.1573
          25.2832
          25.2304
          24.9709
          24.6059
          24.3061
          24.14
          24.0532
          23.8822
          23.5328
          23.0045
          22.4244
          21.8834
          21.4254
          21.0102
          21.0249
          22.0407
          23.1668
          24.5594
          25.7084
          26.462
          26.6362
          26.6631
          26.9035
          27.6917
          28.6095
          29.2948
          29.3707
          29.025
          28.7039
          28.8295
          29.3341
          29.7886
          29.7363
          29.0481
          28.1332
          27.3802
          27.1894
          27.2022
          27.0331
          26.2633
          25.1047
          23.7303
          22.6835
          21.81
          21.0194
          21.0348
          22.4546
          24.045
          26.0172
          29.7203
          29.7207
          29.7209
          29.7208
          29.0552
          30.2234
          34.0248
          34.0252
          34.0253
          34.025
          31.5543
          31.741
          34.7146
          34.715
          34.7149
          34.7145
          30.8262
          29.7097
          30.6018
          30.6019
          30.6017
          30.6013
          26.7704
          24.8354
          23.3601
          22.1384
          21.0273
          21.0422
          22.7591
          24.6457
          26.9694
          29.7407
          29.7409
          29.741
          29.7411
          30.3402
          31.7717
          34.0499
          34.05
          34.0501
          34.05
          33.2708
          33.5001
          34.7406
          34.7407
          34.7406
          34.7405
          32.4703
          31.1022
          30.6235
          30.6234
          30.6233
          30.6231
          27.8636
          25.6097
          23.8737
          22.3948
          21.0335
          21.0471
          22.9539
          24.9965
          27.2719
          29.8008
          29.801
          29.8011
          29.8012
          30.8367
          32.2727
          34.1237
          34.1238
          34.1238
          34.1238
          33.8766
          34.1067
          34.817
          34.817
          34.817
          34.8169
          33.0057
          31.6336
          30.6877
          30.6877
          30.6875
          30.6874
          28.2391
          26.0845
          24.2242
          22.5793
          21.0381
          21.0501
          23.071
          25.1813
          27.4473
          29.9008
          29.901
          29.9011
          29.9012
          31.0778
          32.5214
          34.2463
          34.2464
          34.2465
          34.2465
          34.1654
          34.397
          34.9439
          34.9439
          34.9439
          34.9438
          33.2693
          31.8905
          30.7946
          30.7945
          30.7944
          30.7943
          28.4652
          26.3562
          24.4532
          22.7058
          21.0412
          21.0521
          23.1473
          25.3093
          27.5936
          30.0408
          30.0409
          30.041
          30.0411
          31.2693
          32.7235
          34.4178
          34.4179
          34.418
          34.418
          34.3899
          34.6235
          35.1214
          35.1214
          35.1214
          35.1213
          33.4818
          32.0935
          30.9442
          30.9441
          30.944
          30.9438
          28.6507
          26.5488
          24.6112
          22.7949
          21.0435
          21.0537
          23.2105
          25.4242
          27.7459
          30.2208
          30.221
          30.2211
          30.2212
          31.4752
          32.9429
          34.6382
          34.6383
          34.6384
          34.6384
          34.6286
          34.8647
          35.3495
          35.3495
          35.3495
          35.3494
          33.7114
          32.3112
          31.1365
          31.1365
          31.1364
          31.1362
          28.8368
          26.7156
          24.7389
          22.865
          21.0453
          21.0552
          23.2737
          25.5449
          27.9183
          30.4411
          30.4413
          30.4414
          30.4415
          31.7152
          33.1993
          34.9075
          34.9076
          34.9077
          34.9077
          34.9058
          35.1451
          35.6282
          35.6282
          35.6281
          35.628
          33.9794
          32.5647
          31.3719
          31.3718
          31.3717
          31.3715
          29.0407
          26.8824
          24.8589
          22.9287
          21.0468
          21.0569
          23.3427
          25.6796
          28.1165
          30.7019
          30.702
          30.7022
          30.7022
          31.9957
          33.4991
          35.2258
          35.2259
          35.2259
          35.226
          35.2291
          35.4721
          35.9574
          35.9574
          35.9574
          35.9573
          34.2926
          32.8609
          31.6503
          31.6502
          31.6501
          31.65
          29.2709
          27.062
          24.9832
          22.9931
          21.0484
          21.0588
          23.4201
          25.8319
          28.3433
          31.0033
          31.0034
          31.0036
          31.0036
          32.3186
          33.8441
          35.593
          35.5931
          35.5932
          35.5932
          35.6009
          35.8481
          36.3372
          36.3372
          36.3372
          36.3371
          34.653
          33.2017
          31.972
          31.9719
          31.9718
          31.9717
          29.5316
          27.2608
          25.1183
          23.0622
          21.0501
          21.0609
          23.507
          26.0036
          28.6
          31.3456
          31.3457
          31.3458
          31.3459
          32.6849
          34.2351
          36.0093
          36.0094
          36.0094
          36.0094
          36.0219
          36.2738
          36.7677
          36.7677
          36.7676
          36.7676
          35.0612
          33.5881
          32.3373
          32.3372
          32.3371
          32.3369
          29.825
          27.4825
          25.2675
          23.138
          21.052
          21.0633
          23.604
          26.1954
          28.8871
          31.729
          31.7292
          31.7293
          31.7294
          33.0947
          34.6723
          36.4745
          36.4746
          36.4747
          36.4747
          36.4923
          36.7495
          37.2487
          37.2487
          37.2487
          37.2486
          35.5177
          34.0205
          32.7463
          32.7462
          32.746
          32.7459
          30.1524
          27.7288
          25.4327
          23.2218
          21.054
          21.0659
          23.7114
          26.4078
          29.2053
          32.1539
          32.1541
          32.1542
          32.1543
          33.5485
          35.1561
          36.9889
          36.989
          36.9891
          36.9891
          37.0124
          37.2754
          37.7804
          37.7804
          37.7804
          37.7803
          36.0225
          34.4989
          33.1993
          33.1992
          33.1991
          33.1989
          30.5148
          28.0013
          25.6153
          23.3143
          21.0563
          21.0688
          23.8294
          26.6413
          29.5548
          32.6206
          32.6208
          32.6209
          32.621
          34.0465
          35.6865
          37.5524
          37.5525
          37.5526
          37.5526
          37.5821
          37.8513
          38.3627
          38.3627
          38.3626
          38.3625
          36.5758
          35.0238
          33.6966
          33.6965
          33.6964
          33.6962
          30.913
          28.3009
          25.8162
          23.4162
          21.0588
          21.0719
          23.9583
          26.8962
          29.9361
          33.1294
          33.1296
          33.1298
          33.1299
          34.5889
          36.2637
          38.1651
          38.1652
          38.1653
          38.1653
          38.2014
          38.4774
          38.9955
          38.9956
          38.9955
          38.9954
          37.1777
          35.5952
          34.2385
          34.2384
          34.2383
          34.2381
          31.348
          28.6292
          26.037
          23.5283
          21.0615
          21.0754
          24.0988
          27.1734
          30.3501
          33.6808
          33.6809
          33.6811
          33.6812
          35.1759
          36.8877
          38.8269
          38.827
          38.8271
          38.8271
          38.8705
          39.1537
          39.679
          39.679
          39.679
          39.6789
          37.8283
          36.2133
          34.8253
          34.8252
          34.8251
          34.8249
          31.8214
          28.9885
          26.2799
          23.6522
          21.0645
          21.079
          24.2517
          27.4744
          30.7977
          34.2749
          34.2751
          34.2753
          34.2754
          35.808
          37.5589
          39.538
          39.5381
          39.5382
          39.5382
          39.5894
          39.8803
          40.4131
          40.4131
          40.413
          40.4129
          38.5277
          36.8786
          35.4573
          35.4572
          35.4571
          35.4569
          32.336
          29.3831
          26.5492
          23.7904
          21.0678
          21.0835
          24.4193
          27.8023
          31.2815
          34.9123
          34.9126
          34.9128
          34.9129
          36.4853
          38.2773
          40.2982
          40.2984
          40.2985
          40.2986
          40.3583
          40.6573
          41.1977
          41.1977
          41.1976
          41.1974
          39.2761
          37.5911
          36.135
          36.1348
          36.1346
          36.1344
          32.8967
          29.8208
          26.8526
          23.9477
          21.0721
          21.0867
          24.6073
          28.1643
          31.8066
          35.5933
          35.5936
          35.5939
          35.5942
          37.2082
          39.0431
          41.1076
          41.1078
          41.1081
          41.1083
          41.1778
          41.4853
          42.0328
          42.0328
          42.0325
          42.0323
          40.0736
          38.3513
          36.8586
          36.8584
          36.858
          36.8577
          33.5127
          30.3165
          27.2052
          24.1343
          21.0752
          21.0978
          24.8247
          28.577
          32.3842
          36.318
          36.3185
          36.3193
          36.3197
          37.9771
          39.8563
          41.9657
          41.9663
          41.9672
          41.9677
          42.0496
          42.3659
          42.9187
          42.9184
          42.9178
          42.9174
          40.9206
          39.1599
          37.6287
          37.6283
          37.6275
          37.627
          34.2012
          30.8984
          27.637
          24.3662
          21.0871
          21.0819
          25.1086
          29.0745
          33.0406
          37.0863
          37.0875
          37.0896
          37.0907
          38.7934
          40.7173
          42.8718
          42.8733
          42.8762
          42.8776
          42.9784
          43.3038
          43.8558
          43.8549
          43.853
          43.852
          41.8183
          40.0189
          38.4465
          38.4453
          38.4431
          38.4418
          34.9934
          31.6212
          28.2018
          24.6916
          21.0707
          21.1843
          25.4807
          29.754
          33.8303
          37.8967
          37.9
          37.9062
          37.9094
          39.66
          41.6267
          43.8229
          43.8275
          43.8364
          43.8409
          43.9777
          44.3117
          44.8461
          44.8431
          44.8371
          44.834
          42.7699
          40.9337
          39.3142
          39.3108
          39.304
          39.3004
          35.9451
          32.582
          29.0262
          25.1442
          21.1812
          20.8325
          26.2605
          30.7661
          34.8903
          38.7434
          38.753
          38.7728
          38.7824
          40.5883
          42.5874
          44.8101
          44.824
          44.8527
          44.8665
          45.0842
          45.425
          45.8953
          45.886
          45.8667
          45.8573
          43.7854
          41.921
          40.2391
          40.2286
          40.207
          40.1964
          37.1362
          33.9756
          30.2948
          26.0735
          20.8091
          22.3527
          27.2027
          32.7494
          36.4099
          39.6055
          39.6385
          39.6983
          39.7313
          41.6144
          43.6145
          45.8023
          45.8502
          45.9374
          45.9853
          46.3952
          46.7368
          47.0242
          46.992
          46.9333
          46.901
          44.8968
          43.0311
          41.2447
          41.2085
          41.1429
          41.1067
          38.6457
          36.0482
          32.7029
          27.2216
          22.4307
          16.5007
          32.2135
          36.2345
          38.5309
          40.4334
          40.5116
          40.7285
          40.8066
          42.8931
          44.736
          46.7257
          46.8408
          47.156
          47.271
          48.1719
          48.4849
          48.2822
          48.205
          47.9926
          47.9154
          46.1762
          44.4491
          42.3864
          42.3005
          42.0625
          41.9767
          40.5034
          38.9683
          36.7986
          32.7381
          16.2063
          40.9448
          41.0324
          41.133
          41.2436
          41.1762
          41.2628
          41.6886
          42.6295
          44.7111
          46.1309
          47.2382
          47.7653
          48.3978
          49.3468
          50.8934
          51.1242
          50.118
          49.4351
          49.0119
          48.6965
          47.8761
          46.5054
          44.329
          43.3216
          42.8529
          42.7349
          42.7511
          42.589
          42.4407
          42.3237
          42.2287
          40.9734
          41.042
          41.1475
          41.2757
          41.4672
          41.8068
          42.4304
          43.4733
          44.8033
          46.2596
          47.5584
          48.6863
          49.6654
          50.5972
          51.2928
          51.5223
          51.2504
          50.7031
          50.0666
          49.2293
          48.0943
          46.6541
          45.2445
          44.1166
          43.4258
          43.0292
          42.7842
          42.6024
          42.4468
          42.3311
          42.2575
          41.0086
          41.0624
          41.1743
          41.3574
          41.6473
          42.1083
          42.8146
          43.8007
          45.0501
          46.5146
          48.2142
          49.8036
          50.9938
          51.8789
          52.4561
          52.6712
          52.5204
          52.0572
          51.3132
          50.2346
          48.6889
          47.017
          45.6246
          44.534
          43.7459
          43.2174
          42.8674
          42.6274
          42.4585
          42.3468
          42.2916
          41.0337
          41.0716
          41.1886
          41.3895
          41.7099
          42.2045
          42.9271
          43.9072
          45.1422
          46.6432
          48.59
          50.4491
          51.7088
          52.599
          53.1564
          53.3702
          53.2406
          52.7882
          52.0148
          50.8518
          49.0574
          47.1656
          45.7535
          44.6581
          43.8487
          43.283
          42.9003
          42.6407
          42.4643
          42.3537
          42.3166
        </DataArray>
      </PointData>
      <CellData>
      </CellData>
      <Points>
        <DataArray type="Float32" NumberOfComponents="3" format="ascii">
          0.1 0.005 0.0
          0.0966667 0.005 0.0
          0.0933333 0.005 0.0
          0.09 0.005 0.0
          0.0866667 0.005 0.0
          0.0833333 0.005 0.0
          0.08 0.005 0.0
          0.0766667 0.005 0.0
          0.0733333 0.005 0.0
          0.07 0.005 0.0
          0.0666667 0.005 0.0
          0.0633333 0.005 0.0
          0.06 0.005 0.0
          0.0566667 0.005 0.0
          0.0533333 0.005 0.0
          0.05 0.005 0.0
          0.0466667 0.005 0.0
          0.0433333 0.005 0.0
          0.04 0.005 0.0
          0.0366667 0.005 0.0
          0.0333333 0.005 0.0
          0.03 0.005 0.0
          0.0266667 0.005 0.0
          0.0233333 0.005 0.0
          0.02 0.005 0.0
          0.0166667 0.005 0.0
          0.0133333 0.005 0.0
          0.01 0.005 0.0
          0.00666667 0.005 0.0
          0.00333333 0.005 0.0
          0 0.005 0.0
          0.1 0.00166667 0.0
          0.0966667 0.00166667 0.0
          0.0933333 0.00166667 0.0
          0.09 0.00166667 0.0
          0.0866667 0.00166667 0.0
          0.0833333 0.00166667 0.0
          0.08 0.00166667 0.0
          0.0766667 0.00166667 0.0
          0.0733333 0.00166667 0.0
          0.07 0.00166667 0.0
          0.0666667 0.00166667 0.0
          0.0633333 0.00166667 0.0
          0.06 0.00166667 0.0
          0.0566667 0.00166667 0.0
          0.0533333 0.00166667 0.0
          0.05 0.00166667 0.0
          0.0466667 0.00166667 0.0
          0.0433333 0.00166667 0.0
          0.04 0.00166667 0.0
          0.0366667 0.00166667 0.0
          0.0333333 0.00166667 0.0
          0.03 0.00166667 0.0
          0.0266667 0.00166667 0.0
          0.0233333 0.00166667 0.0
          0.02 0.00166667 0.0
          0.0166667 0.00166667 0.0
          0.0133333 0.00166667 0.0
          0.01 0.00166667 0.0
          0.00666667 0.00166667 0.0
          0.00333333 0.00166667 0.0
          0 0.00166667 0.0
          0.1 -0.00166667 0.0
          0.0966667 -0.00166667 0.0
          0.0933333 -0.00166667 0.0
          0.09 -0.00166667 0.0
          0.0866667 -0.00166667 0.0
          0.0833333 -0.00166667 0.0
          0.08 -0.00166667 0.0
          0.0766667 -0.00166667 0.0
          0.0733333 -0.00166667 0.0
          0.07 -0.00166667 0.0
          0.0666667 -0.00166667 0.0
          0.0633333 -0.00166667 0.0
          0.06 -0.00166667 0.0
          0.0566667 -0.00166667 0.0
          0.0533333 -0.00166667 0.0
          0.05 -0.00166667 0.0
          0.0466667 -0.00166667 0.0
          0.0433333 -0.00166667 0.0
          0.04 -0.00166667 0.0
          0.0366667 -0.00166667 0.0
          0.0333333 -0.00166667 0.0
          0.03 -0.00166667 0.0
          0.0266667 -0.00166667 0.0
          0.0233333 -0.00166667 0.0
          0.02 -0.00166667 0.0
          0.0166667 -0.00166667 0.0
          0.0133333 -0.00166667 0.0
          0.01 -0.00166667 0.0
          0.00666667 -0.00166667 0.0
          0.00333333 -0.00166667 0.0
          0 -0.00166667 0.0
          0.1 -0.005 0.0
          0.0966667 -0.005 0.0
          0.0933333 -0.005 0.0
          0.09 -0.005 0.0
          0.0866667 -0.005 0.0
          0.0833333 -0.005 0.0
          0.08 -0.005 0.0
          0.0766667 -0.005 0.0
          0.0733333 -0.005 0.0
          0.07 -0.005 0.0
          0.0666667 -0.005 0.0
          0.0633333 -0.005 0.0
          0.06 -0.005 0.0
          0.0566667 -0.005 0.0
          0.0533333 -0.005 0.0
          0.05 -0.005 0.0
          0.0466667 -0.005 0.0
          0.0433333 -0.005 0.0
          0.04 -0.005 0.0
          0.0366667 -0.005 0.0
          0.0333333 -0.005 0.0
          0.03 -0.005 0.0
          0.0266667 -0.005 0.0
          0.0233333 -0.005 0.0
          0.02 -0.005 0.0
          0.0166667 -0.005 0.0
          0.0133333 -0.005 0.0
          0.01 -0.005 0.0
          0.00666667 -0.005 0.0
          0.00333333 -0.005 0.0
          0 -0.005 0.0
          0.1 -0.00833333 0.0
          0.0966667 -0.00833333 0.0
          0.0933333 -0.00833333 0.0
          0.09 -0.00833333 0.0
          0.0866667 -0.00833333 0.0
          0.0833333 -0.00833333 0.0
          0.08 -0.00833333 0.0
          0.0766667 -0.00833333 0.0
          0.0733333 -0.00833333 0.0
          0.07 -0.00833333 0.0
          0.0666667 -0.00833333 0.0
          0.0633333 -0.00833333 0.0
          0.06 -0.00833333 0.0
          0.0566667 -0.00833333 0.0
          0.0533333 -0.00833333 0.0
          0.05 -0.00833333 0.0
          0.0466667 -0.00833333 0.0
          0.0433333 -0.00833333 0.0
          0.04 -0.00833333 0.0
          0.0366667 -0.00833333 0.0
          0.0333333 -0.00833333 0.0
          0.03 -0.00833333 0.0
          0.0266667 -0.00833333 0.0
          0.0233333 -0.00833333 0.0
          0.02 -0.00833333 0.0
          0.0166667 -0.00833333 0.0
          0.0133333 -0.00833333 0.0
          0.01 -0.00833333 0.0
          0.00666667 -0.00833333 0.0
          0.00333333 -0.00833333 0.0
          0 -0.00833333 0.0
          0.1 -0.0116667 0.0
          0.0966667 -0.0116667 0.0
          0.0933333 -0.0116667 0.0
          0.09 -0.0116667 0.0
          0.0866667 -0.0116667 0.0
          0.0833333 -0.0116667 0.0
          0.08 -0.0116667 0.0
          0.0766667 -0.0116667 0.0
          0.0733333 -0.0116667 0.0
          0.07 -0.0116667 0.0
          0.0666667 -0.0116667 0.0
          0.0633333 -0.0116667 0.0
          0.06 -0.0116667 0.0
          0.0566667 -0.0116667 0.0
          0.0533333 -0.0116667 0.0
          0.05 -0.0116667 0.0
          0.0466667 -0.0116667 0.0
          0.0433333 -0.0116667 0.0
          0.04 -0.0116667 0.0
          0.0366667 -0.0116667 0.0
          0.0333333 -0.0116667 0.0
          0.03 -0.0116667 0.0
          0.0266667 -0.0116667 0.0
          0.0233333 -0.0116667 0.0
          0.02 -0.0116667 0.0
          0.0166667 -0.0116667 0.0
          0.0133333 -0.0116667 0.0
          0.01 -0.0116667 0.0
          0.00666667 -0.0116667 0.0
          0.00333333 -0.0116667 0.0
          0 -0.0116667 0.0
          0.1 -0.015 0.0
          0.0966667 -0.015 0.0
          0.0933333 -0.015 0.0
          0.09 -0.015 0.0
          0.0866667 -0.015 0.0
          0.0833333 -0.015 0.0
          0.08 -0.015 0.0
          0.0766667 -0.015 0.0
          0.0733333 -0.015 0.0
          0.07 -0.015 0.0
          0.0666667 -0.015 0.0
          0.0633333 -0.015 0.0
          0.06 -0.015 0.0
          0.0566667 -0.015 0.0
          0.0533333 -0.015 0.0
          0.05 -0.015 0.0
          0.0466667 -0.015 0.0
          0.0433333 -0.015 0.0
          0.04 -0.015 0.0
          0.0366667 -0.015 0.0
          0.0333333 -0.015 0.0
          0.03 -0.015 0.0
          0.0266667 -0.015 0.0
          0.0233333 -0.015 0.0
          0.02 -0.015 0.0
          0.0166667 -0.015 0.0
          0.0133333 -0.015 0.0
          0.01 -0.015 0.0
          0.00666667 -0.015 0.0
          0.00333333 -0.015 0.0
          0 -0.015 0.0
          0.1 -0.0183333 0.0
          0.0966667 -0.0183333 0.0
          0.0933333 -0.0183333 0.0
          0.09 -0.0183333 0.0
          0.0866667 -0.0183333 0.0
          0.0833333 -0.0183333 0.0
          0.08 -0.0183333 0.0
          0.0766667 -0.0183333 0.0
          0.0733333 -0.0183333 0.0
          0.07 -0.0183333 0.0
          0.0666667 -0.0183333 0.0
          0.0633333 -0.0183333 0.0
          0.06 -0.0183333 0.0
          0.0566667 -0.0183333 0.0
          0.0533333 -0.0183333 0.0
          0.05 -0.0183333 0.0
          0.0466667 -0.0183333 0.0
          0.0433333 -0.0183333 0.0
          0.04 -0.0183333 0.0
          0.0366667 -0.0183333 0.0
          0.0333333 -0.0183333 0.0
          0.03 -0.0183333 0.0
          0.0266667 -0.0183333 0.0
          0.0233333 -0.0183333 0.0
          0.02 -0.0183333 0.0
          0.0166667 -0.0183333 0.0
          0.0133333 -0.0183333 0.0
          0.01 -0.0183333 0.0
          0.00666667 -0.0183333 0.0
          0.00333333 -0.0183333 0.0
          0 -0.0183333 0.0
          0.1 -0.0216667 0.0
          0.0966667 -0.0216667 0.0
          0.0933333 -0.0216667 0.0
          0.09 -0.0216667 0.0
          0.0866667 -0.0216667 0.0
          0.0833333 -0.0216667 0.0
          0.08 -0.0216667 0.0
          0.0766667 -0.0216667 0.0
          0.0733333 -0.0216667 0.0
          0.07 -0.0216667 0.0
          0.0666667 -0.0216667 0.0
          0.0633333 -0.0216667 0.0
          0.06 -0.0216667 0.0
          0.0566667 -0.0216667 0.0
          0.0533333 -0.0216667 0.0
          0.05 -0.0216667 0.0
          0.0466667 -0.0216667 0.0
          0.0433333 -0.0216667 0.0
          0.04 -0.0216667 0.0
          0.0366667 -0.0216667 0.0
          0.0333333 -0.0216667 0.0
          0.03 -0.0216667 0.0
          0.0266667 -0.0216667 0.0
          0.0233333 -0.0216667 0.0
          0.02 -0.0216667 0.0
          0.0166667 -0.0216667 0.0
          0.0133333 -0.0216667 0.0
          0.01 -0.0216667 0.0
          0.00666667 -0.0216667 0.0
          0.00333333 -0.0216667 0.0
          0 -0.0216667 0.0
          0.1 -0.025 0.0
          0.0966667 -0.025 0.0
          0.0933333 -0.025 0.0
          0.09 -0.025 0.0
          0.0866667 -0.025 0.0
          0.0833333 -0.025 0.0
          0.08 -0.025 0.0
          0.0766667 -0.025 0.0
          0.0733333 -0.025 0.0
          0.07 -0.025 0.0
          0.0666667 -0.025 0.0
          0.0633333 -0.025 0.0
          0.06 -0.025 0.0
          0.0566667 -0.025 0.0
          0.0533333 -0.025 0.0
          0.05 -0.025 0.0
          0.0466667 -0.025 0.0
          0.0433333 -0.025 0.0
          0.04 -0.025 0.0
          0.0366667 -0.025 0.0
          0.0333333 -0.025 0.0
          0.03 -0.025 0.0
          0.0266667 -0.025 0.0
          0.0233333 -0.025 0.0
          0.02 -0.025 0.0
          0.0166667 -0.025 0.0
          0.0133333 -0.025 0.0
          0.01 -0.025 0.0
          0.00666667 -0.025 0.0
          0.00333333 -0.025 0.0
          0 -0.025 0.0
          0.1 -0.0283333 0.0
          0.0966667 -0.0283333 0.0
          0.0933333 -0.0283333 0.0
          0.09 -0.0283333 0.0
          0.0866667 -0.0283333 0.0
          0.0833333 -0.0283333 0.0
          0.08 -0.0283333 0.0
          0.0766667 -0.0283333 0.0
          0.0733333 -0.0283333 0.0
          0.07 -0.0283333 0.0
          0.0666667 -0.0283333 0.0
          0.0633333 -0.0283333 0.0
          0.06 -0.0283333 0.0
          0.0566667 -0.0283333 0.0
          0.0533333 -0.0283333 0.0
          0.05 -0.0283333 0.0
          0.0466667 -0.0283333 0.0
          0.0433333 -0.0283333 0.0
          0.04 -0.0283333 0.0
          0.0366667 -0.0283333 0.0
          0.0333333 -0.0283333 0.0
          0.03 -0.0283333 0.0
          0.0266667 -0.0283333 0.0
          0.0233333 -0.0283333 0.0
          0.02 -0.0283333 0.0
          0.0166667 -0.0283333 0.0
          0.0133333 -0.0283333 0.0
          0.01 -0.0283333 0.0
          0.00666667 -0.0283333 0.0
          0.00333333 -0.0283333 0.0
          0 -0.0283333 0.0
          0.1 -0.0316667 0.0
          0.0966667 -0.0316667 0.0
          0.0933333 -0.0316667 0.0
          0.09 -0.0316667 0.0
          0.0866667 -0.0316667 0.0
          0.0833333 -0.0316667 0.0
          0.08 -0.0316667 0.0
          0.0766667 -0.0316667 0.0
          0.0733333 -0.0316667 0.0
          0.07 -0.0316667 0.0
          0.0666667 -0.0316667 0.0
          0.0633333 -0.0316667 0.0
          0.06 -0.0316667 0.0
          0.0566667 -0.0316667 0.0
          0.0533333 -0.0316667 0.0
          0.05 -0.0316667 0.0
          0.0466667 -0.0316667 0.0
          0.0433333 -0.0316667 0.0
          0.04 -0.0316667 0.0
          0.0366667 -0.0316667 0.0
          0.0333333 -0.0316667 0.0
          0.03 -0.0316667 0.0
          0.0266667 -0.0316667 0.0
          0.0233333 -0.0316667 0.0
          0.02 -0.0316667 0.0
          0.0166667 -0.0316667 0.0
          0.0133333 -0.0316667 0.0
          0.01 -0.0316667 0.0
          0.00666667 -0.0316667 0.0
          0.00333333 -0.0316667 0.0
          0 -0.0316667 0.0
          0.1 -0.035 0.0
          0.0966667 -0.035 0.0
          0.0933333 -0.035 0.0
          0.09 -0.035 0.0
          0.0866667 -0.035 0.0
          0.0833333 -0.035 0.0
          0.08 -0.035 0.0
          0.0766667 -0.035 0.0
          0.0733333 -0.035 0.0
          0.07 -0.035 0.0
          0.0666667 -0.035 0.0
          0.0633333 -0.035 0.0
          0.06 -0.035 0.0
          0.0566667 -0.035 0.0
          0.0533333 -0.035 0.0
          0.05 -0.035 0.0