<?xml version="1.0"?>
<VTKFile type="UnstructuredGrid" version="0.1" byte_order="LittleEndian">
  <UnstructuredGrid>
    <Piece NumberOfPoints="961" NumberOfCells="900">
      <PointData Scalars="Temperature">
        <DataArray type="Float32" Name="Temperature" format="ascii">
          21.0002
          21.0077
          21.0157
          21.0239
          21.031
          21.0361
          21.0391
          21.0416
          21.0453
          21.0509
          21.057
          21.0614
          21.0629
          21.0623
          21.0616
          21.0625
          21.0647
          21.0662
          21.0651
          21.0608
          21.0549
          21.0494
          21.046
          21.0436
          21.0406
          21.0354
          21.0282
          21.0201
          21.0125
          21.006
          21.0001
          21.0074
          21.3105
          21.6449
          21.9908
          22.3009
          22.5077
          22.6206
          22.7025
          22.8534
          23.0929
          23.3663
          23.5585
          23.6162
          23.5702
          23.5257
          23.5623
          23.6709
          23.756
          23.7149
          23.5258
          23.2545
          23.0219
          22.882
          22.8086
          22.6968
          22.4843
          22.1674
          21.8231
          21.5061
          21.2423
          21.0058
          21.0142
          21.593
          22.2416
          23.0581
          23.7366
          24.187
          24.2986
          24.352
          24.574
          25.18
          25.8455
          26.333
          26.39
          26.1592
          25.9467
          26.0397
          26.3877
          26.6988
          26.6582
          26.1647
          25.4948
          24.9062
          24.7145
          24.6864
          24.5758
          24.1057
          23.4059
          22.5816
          21.9663
          21.4621
          21.0111
          21.0199
          21.8311
          22.7507
          23.9125
          26.1403
          26.1406
          26.1407
          26.1406
          25.8889
          26.7896
          29.4743
          29.4746
          29.4747
          29.4745
          27.8013
          27.9398
          29.9884
          29.9886
          29.9886
          29.9882
          27.2214
          26.3463
          26.7502
          26.7503
          26.7502
          26.7499
          24.3958
          23.229
          22.3581
          21.651
          21.0156
          21.0241
          22.0086
          23.1034
          24.4793
          26.1583
          26.1584
          26.1585
          26.1585
          26.6853
          27.7923
          29.4985
          29.4986
          29.4986
          29.4986
          28.9354
          29.106
          30.0136
          30.0136
          30.0136
          30.0135
          28.2947
          27.2193
          26.7696
          26.7696
          26.7695
          26.7694
          25.0552
          23.6878
          22.6592
          21.8003
          21.0192
          21.0271
          22.1254
          23.3158
          24.6687
          26.2115
          26.2116
          26.2117
          26.2117
          27.0149
          28.1278
          29.57
          29.5701
          29.5701
          29.5701
          29.355
          29.5266
          30.0882
          30.0882
          30.0882
          30.0881
          28.6563
          27.5754
          26.8274
          26.8274
          26.8273
          26.8272
          25.2912
          23.9768
          22.8697
          21.9103
          21.0219
          21.029
          22.2001
          23.437
          24.7924
          26.3001
          26.3002
          26.3003
          26.3004
          27.1962
          28.3193
          29.6889
          29.689
          29.689
          29.689
          29.5823
          29.7557
          30.2124
          30.2124
          30.2123
          30.2123
          28.8608
          27.7705
          26.9237
          26.9236
          26.9235
          26.9234
          25.4487
          24.1532
          23.0142
          21.9892
          21.0239
          21.0304
          22.2543
          23.5314
          24.9084
          26.4244
          26.4245
          26.4246
          26.4246
          27.3593
          28.4965
          29.8554
          29.8555
          29.8555
          29.8555
          29.7837
          29.9595
          30.3861
          30.3862
          30.3861
          30.3861
          29.0486
          27.9453
          27.0586
          27.0585
          27.0584
          27.0583
          25.5932
          24.2913
          23.1227
          22.0491
          21.0254
          21.0316
          22.3041
          23.6245
          25.0373
          26.5845
          26.5846
          26.5847
          26.5848
          27.5442
          28.6995
          30.0695
          30.0696
          30.0697
          30.0697
          30.0105
          30.1893
          30.6096
          30.6096
          30.6096
          30.6095
          29.2631
          28.1431
          27.2323
          27.2323
          27.2322
          27.2321
          25.7489
          24.4226
          23.2192
          22.1009
          21.0267
          21.0329
          22.3572
          23.7273
          25.1874
          26.7808
          26.7809
          26.781
          26.7811
          27.7634
          28.9407
          30.3315
          30.3316
          30.3316
          30.3316
          30.2785
          30.4612
          30.8829
          30.8829
          30.8829
          30.8828
          29.5177
          28.3774
          27.4453
          27.4452
          27.4451
          27.445
          25.9263
          24.5624
          23.3169
          22.1518
          21.0279
          21.0344
          22.4169
          23.8448
          25.3623
          27.0137
          27.0138
          27.0138
          27.0139
          28.021
          29.2241
          30.6414
          30.6415
          30.6415
          30.6415
          30.5929
          30.7801
          31.2062
          31.2062
          31.2062
          31.2061
          29.8168
          28.6528
          27.6977
          27.6977
          27.6976
          27.6975
          26.1305
          24.7183
          23.4228
          22.2061
          21.0292
          21.036
          22.4847
          23.9791
          25.5636
          27.2834
          27.2835
          27.2836
          27.2837
          28.3186
          29.5513
          30.9994
          30.9995
          30.9996
          30.9996
          30.9554
          31.1477
          31.5796
          31.5797
          31.5796
          31.5795
          30.1619
          28.9707
          27.9901
          27.9901
          27.99
          27.9899
          26.3641
          24.8941
          23.5409
          22.266
          21.0307
          21.0379
          22.5615
          24.1313
          25.7924
          27.5907
          27.5908
          27.5909
          27.5909
          28.657
          29.9229
          31.4058
          31.4059
          31.406
          31.406
          31.3666
          31.5647
          32.0034
          32.0034
          32.0034
          32.0033
          30.5537
          29.332
          28.3229
          28.3229
          28.3228
          28.3227
          26.6286
          25.092
          23.6731
          22.3329
          21.0323
          21.04
          22.6477
          24.3022
          26.0494
          27.9359
          27.936
          27.9361
          27.9361
          29.0366
          30.3393
          31.8608
          31.8609
          31.861
          31.861
          31.8268
          32.0314
          32.4776
          32.4776
          32.4776
          32.4775
          30.9926
          29.7373
          28.6967
          28.6966
          28.6965
          28.6964
          26.9252
          25.3135
          23.8208
          22.4075
          21.0342
          21.0423
          22.7434
          24.4922
          26.3351
          28.3196
          28.3197
          28.3198
          28.3199
          29.4581
          30.801
          32.3646
          32.3647
          32.3648
          32.3648
          32.3365
          32.5481
          33.0026
          33.0026
          33.0026
          33.0025
          31.479
          30.1869
          29.1119
          29.1118
          29.1117
          29.1116
          27.2548
          25.5596
          23.9848
          22.4903
          21.0362
          21.0449
          22.8491
          24.7017
          26.6502
          28.7426
          28.7427
          28.7428
          28.7429
          29.9219
          31.3084
          32.9175
          32.9176
          32.9177
          32.9177
          32.8959
          33.1152
          33.5785
          33.5785
          33.5784
          33.5783
          32.0133
          30.6815
          29.5692
          29.5692
          29.5691
          29.5689
          27.6182
          25.8313
          24.1662
          22.5819
          21.0384
          21.0477
          22.9651
          24.9315
          26.9953
          29.2054
          29.2055
          29.2056
          29.2057
          30.4287
          31.8619
          33.5198
          33.5199
          33.5199
          33.5199
          33.5051
          33.7327
          34.2055
          34.2055
          34.2054
          34.2053
          32.5959
          31.2215
          30.0693
          30.0692
          30.0691
          30.069
          28.0166
          26.13
          24.366
          22.6831
          21.0409
          21.0508
          23.0918
          25.1823
          27.3712
          29.7088
          29.7089
          29.709
          29.7091
          30.979
          32.4619
          34.1716
          34.1717
          34.1718
          34.1718
          34.1647
          34.4011
          34.8838
          34.8838
          34.8838
          34.8837
          33.2272
          31.8076
          30.6127
          30.6127
          30.6126
          30.6124
          28.4516
          26.4577
          24.5863
          22.795
          21.0436
          21.0541
          23.2302
          25.4554
          27.7793
          30.2534
          30.2536
          30.2537
          30.2538
          31.5734
          33.1088
          34.8733
          34.8734
          34.8734
          34.8735
          34.8747
          35.1206
          35.6137
          35.6137
          35.6136
          35.6135
          33.9075
          32.4402
          31.2003
          31.2002
          31.2001
          31.1999
          28.9254
          26.8179
          24.8304
          22.9197
          21.0466
          21.0581
          23.382
          25.7535
          28.2217
          30.8401
          30.8403
          30.8405
          30.8406
          32.2125
          33.8032
          35.625
          35.6251
          35.6253
          35.6253
          35.6358
          35.8916
          36.3953
          36.3953
          36.3952
          36.3951
          34.6373
          33.12
          31.8327
          31.8326
          31.8324
          31.8322
          29.4425
          27.217
          25.1045
          23.061
          21.0504
          21.0612
          23.5516
          26.0823
          28.7026
          31.4696
          31.4698
          31.4701
          31.4703
          32.897
          34.5453
          36.4269
          36.4271
          36.4275
          36.4276
          36.4487
          36.715
          37.229
          37.2289
          37.2287
          37.2285
          35.4171
          33.8477
          32.5107
          32.5105
          32.5102
          32.5099
          30.01
          27.6666
          25.4204
          23.2268
          21.0533
          21.0705
          23.7462
          26.4546
          29.2309
          32.1423
          32.1427
          32.1435
          32.1439
          33.6277
          35.3358
          37.279
          37.2795
          37.2805
          37.2809
          37.3154
          37.5926
          38.115
          38.1147
          38.1141
          38.1137
          36.2476
          34.6244
          33.2352
          33.2348
          33.234
          33.2336
          30.6418
          28.1887
          25.8013
          23.4295
          21.0631
          21.0587
          23.9943
          26.8969
          29.8271
          32.8585
          32.8596
          32.8616
          32.8627
          34.4062
          36.175
          38.1806
          38.1821
          38.1848
          38.1862
          38.2408
          38.5292
          39.054
          39.0531
          39.0512
          39.0502
          37.1301
          35.4524
          34.0077
          34.0066
          34.0044
          34.0032
          31.3621
          28.8261
          26.2893
          23.7068
          21.0509
          21.1389
          24.3126
          27.4842
          30.5331
          33.6171
          33.6203
          33.6263
          33.6294
          35.2359
          37.0639
          39.129
          39.1335
          39.1422
          39.1466
          39.2384
          39.5378
          40.0482
          40.0452
          40.0393
          40.0362
          38.0682
          36.3374
          34.831
          34.8276
          34.8209
          34.8174
          32.2146
          29.6547
          26.9834
          24.085
          21.1377
          20.8667
          24.9491
          28.3331
          31.4545
          34.4129
          34.4223
          34.4416
          34.4509
          36.1282
          38.006
          40.1157
          40.1294
          40.1573
          40.1709
          40.345
          40.6538
          41.1036
          41.0943
          41.0751
          41.0657
          39.0721
          37.2964
          35.7125
          35.7021
          35.6807
          35.6702
          33.2613
          30.8272
          28.0286
          24.8375
          20.8478
          22.0473
          25.7144
          29.9408
          32.738
          35.2259
          35.2581
          35.3164
          35.3486
          37.1194
          39.0165
          41.1105
          41.1574
          41.2427
          41.2896
          41.6581
          41.9706
          42.2409
          42.2088
          42.1503
          42.1181
          40.174
          38.3799
          36.6759
          36.64
          36.5751
          36.5392
          34.5642
          32.5394
          29.9712
          25.7647
          22.115
          17.5067
          29.644
          32.7279
          34.4977
          36.0079
          36.0842
          36.2958
          36.372
          38.3622
          40.1255
          42.0412
          42.1539
          42.4623
          42.5749
          43.439
          43.7279
          43.5095
          43.4326
          43.221
          43.1441
          41.4475
          39.7722
          37.7764
          37.6913
          37.4556
          37.3705
          36.1507
          34.9344
          33.2489
          30.1114
          17.2546
          36.4786
          36.5524
          36.6471
          36.7569
          36.7052
          36.7964
          37.2119
          38.1231
          40.1389
          41.5175
          42.5794
          43.086
          43.7053
          44.6426
          46.1696
          46.3859
          45.3622
          44.6736
          44.2517
          43.9458
          43.1504
          41.8023
          39.6669
          38.6779
          38.2135
          38.088
          38.085
          37.9191
          37.7719
          37.6609
          37.58
          36.5012
          36.5606
          36.6604
          36.7872
          36.9779
          37.3129
          37.9214
          38.9356
          40.229
          41.6459
          42.9121
          44.014
          44.9738
          45.8889
          46.5692
          46.7846
          46.5025
          45.9501
          45.3157
          44.4879
          43.3685
          41.9495
          40.5602
          39.448
          38.7637
          38.3658
          38.1165
          37.9317
          37.7773
          37.6669
          37.6026
          36.5293
          36.5777
          36.685
          36.8639
          37.1484
          37.5997
          38.2891
          39.2506
          40.4693
          41.9016
          43.571
          45.1345
          46.3032
          47.1704
          47.7323
          47.9351
          47.7758
          47.3089
          46.5672
          45.4966
          43.9638
          42.3078
          40.9311
          39.8527
          39.0718
          38.5457
          38.1955
          37.9553
          37.7878
          37.6796
          37.6295
          36.5491
          36.5855
          36.6982
          36.8941
          37.2077
          37.6914
          38.3968
          39.3531
          40.5594
          42.0299
          43.9476
          45.7808
          47.0187
          47.8906
          48.4327
          48.6346
          48.497
          48.0414
          47.2702
          46.1148
          44.3323
          42.4549
          41.0571
          39.9731
          39.171
          38.6087
          38.2269
          37.9678
          37.793
          37.6852
          37.6492
        </DataArray>
      </PointData>
      <CellData>
      </CellData>
      <Points>
        <DataArray type="Float32" NumberOfComponents="3" format="ascii">
          0.1 0.005 0.0
          0.0966667 0.005 0.0
          0.0933333 0.005 0.0
          0.09 0.005 0.0
          0.0866667 0.005 0.0
          0.0833333 0.005 0.0
          0.08 0.005 0.0
          0.0766667 0.005 0.0
          0.0733333 0.005 0.0
          0.07 0.005 0.0
          0.0666667 0.005 0.0
          0.0633333 0.005 0.0
          0.06 0.005 0.0
          0.0566667 0.005 0.0
          0.0533333 0.005 0.0
          0.05 0.005 0.0
          0.0466667 0.005 0.0
          0.0433333 0.005 0.0
          0.04 0.005 0.0
          0.0366667 0.005 0.0
          0.0333333 0.005 0.0
          0.03 0.005 0.0
          0.0266667 0.005 0.0
          0.0233333 0.005 0.0
          0.02 0.005 0.0
          0.0166667 0.005 0.0
          0.0133333 0.005 0.0
          0.01 0.005 0.0
          0.00666667 0.005 0.0
          0.00333333 0.005 0.0
          0 0.005 0.0
          0.1 0.00166667 0.0
          0.0966667 0.00166667 0.0
          0.0933333 0.00166667 0.0
          0.09 0.00166667 0.0
          0.0866667 0.00166667 0.0
          0.0833333 0.00166667 0.0
          0.08 0.00166667 0.0
          0.0766667 0.00166667 0.0
          0.0733333 0.00166667 0.0
          0.07 0.00166667 0.0
          0.0666667 0.00166667 0.0
          0.0633333 0.00166667 0.0
          0.06 0.00166667 0.0
          0.0566667 0.00166667 0.0
          0.0533333 0.00166667 0.0
          0.05 0.00166667 0.0
          0.0466667 0.00166667 0.0
          0.0433333 0.00166667 0.0
          0.04 0.00166667 0.0
          0.0366667 0.00166667 0.0
          0.0333333 0.00166667 0.0
          0.03 0.00166667 0.0
          0.0266667 0.00166667 0.0
          0.0233333 0.00166667 0.0
          0.02 0.00166667 0.0
          0.0166667 0.00166667 0.0
          0.0133333 0.00166667 0.0
          0.01 0.00166667 0.0
          0.00666667 0.00166667 0.0
          0.00333333 0.00166667 0.0
          0 0.00166667 0.0
          0.1 -0.00166667 0.0
          0.0966667 -0.00166667 0.0
          0.0933333 -0.00166667 0.0
          0.09 -0.00166667 0.0
          0.0866667 -0.00166667 0.0
          0.0833333 -0.00166667 0.0
          0.08 -0.00166667 0.0
          0.0766667 -0.00166667 0.0
          0.0733333 -0.00166667 0.0
          0.07 -0.00166667 0.0
          0.0666667 -0.00166667 0.0
          0.0633333 -0.00166667 0.0
          0.06 -0.00166667 0.0
          0.0566667 -0.00166667 0.0
          0.0533333 -0.00166667 0.0
          0.05 -0.00166667 0.0
          0.0466667 -0.00166667 0.0
          0.0433333 -0.00166667 0.0
          0.04 -0.00166667 0.0
          0.0366667 -0.00166667 0.0
          0.0333333 -0.00166667 0.0
          0.03 -0.00166667 0.0
          0.0266667 -0.00166667 0.0
          0.0233333 -0.00166667 0.0
          0.02 -0.00166667 0.0
          0.0166667 -0.00166667 0.0
          0.0133333 -0.00166667 0.0
          0.01 -0.00166667 0.0
          0.00666667 -0.00166667 0.0
          0.00333333 -0.00166667 0.0
          0 -0.00166667 0.0
          0.1 -0.005 0.0
          0.0966667 -0.005 0.0
          0.0933333 -0.005 0.0
          0.09 -0.005 0.0
          0.0866667 -0.005 0.0
          0.0833333 -0.005 0.0
          0.08 -0.005 0.0
          0.0766667 -0.005 0.0
          0.0733333 -0.005 0.0
          0.07 -0.005 0.0
          0.0666667 -0.005 0.0
          0.0633333 -0.005 0.0
          0.06 -0.005 0.0
          0.0566667 -0.005 0.0
          0.0533333 -0.005 0.0
          0.05 -0.005 0.0
          0.0466667 -0.005 0.0
          0.0433333 -0.005 0.0
          0.04 -0.005 0.0
          0.0366667 -0.005 0.0
          0.0333333 -0.005 0.0
          0.03 -0.005 0.0
          0.0266667 -0.005 0.0
          0.0233333 -0.005 0.0
          0.02 -0.005 0.0
          0.0166667 -0.005 0.0
          0.0133333 -0.005 0.0
          0.01 -0.005 0.0
          0.00666667 -0.005 0.0
          0.00333333 -0.005 0.0
          0 -0.005 0.0
          0.1 -0.00833333 0.0
          0.0966667 -0.00833333 0.0
          0.0933333 -0.00833333 0.0
          0.09 -0.00833333 0.0
          0.0866667 -0.00833333 0.0
          0.0833333 -0.00833333 0.0
          0.08 -0.00833333 0.0
          0.0766667 -0.00833333 0.0
          0.0733333 -0.00833333 0.0
          0.07 -0.00833333 0.0
          0.0666667 -0.00833333 0.0
          0.0633333 -0.00833333 0.0
          0.06 -0.00833333 0.0
          0.0566667 -0.00833333 0.0
          0.0533333 -0.00833333 0.0
          0.05 -0.00833333 0.0
          0.0466667 -0.00833333 0.0
          0.0433333 -0.00833333 0.0
          0.04 -0.00833333 0.0
          0.0366667 -0.00833333 0.0
          0.0333333 -0.00833333 0.0
          0.03 -0.00833333 0.0
          0.0266667 -0.00833333 0.0
          0.0233333 -0.00833333 0.0
          0.02 -0.00833333 0.0
          0.0166667 -0.00833333 0.0
          0.0133333 -0.00833333 0.0
          0.01 -0.00833333 0.0
          0.00666667 -0.00833333 0.0
          0.00333333 -0.00833333 0.0
          0 -0.00833333 0.0
          0.1 -0.0116667 0.0
          0.0966667 -0.0116667 0.0
          0.0933333 -0.0116667 0.0
          0.09 -0.0116667 0.0
          0.0866667 -0.0116667 0.0
          0.0833333 -0.0116667 0.0
          0.08 -0.0116667 0.0
          0.0766667 -0.0116667 0.0
          0.0733333 -0.0116667 0.0
          0.07 -0.0116667 0.0
          0.0666667 -0.0116667 0.0
          0.0633333 -0.0116667 0.0
          0.06 -0.0116667 0.0
          0.0566667 -0.0116667 0.0
          0.0533333 -0.0116667 0.0
          0.05 -0.0116667 0.0
          0.0466667 -0.0116667 0.0
          0.0433333 -0.0116667 0.0
          0.04 -0.0116667 0.0
          0.0366667 -0.0116667 0.0
          0.0333333 -0.0116667 0.0
          0.03 -0.0116667 0.0
          0.0266667 -0.0116667 0.0
          0.0233333 -0.0116667 0.0
          0.02 -0.0116667 0.0
          0.0166667 -0.0116667 0.0
          0.0133333 -0.0116667 0.0
          0.01 -0.0116667 0.0
          0.00666667 -0.0116667 0.0
          0.00333333 -0.0116667 0.0
          0 -0.0116667 0.0
          0.1 -0.015 0.0
          0.0966667 -0.015 0.0
          0.0933333 -0.015 0.0
          0.09 -0.015 0.0
          0.0866667 -0.015 0.0
          0.0833333 -0.015 0.0
          0.08 -0.015 0.0
          0.0766667 -0.015 0.0
          0.0733333 -0.015 0.0
          0.07 -0.015 0.0
          0.0666667 -0.015 0.0
          0.0633333 -0.015 0.0
          0.06 -0.015 0.0
          0.0566667 -0.015 0.0
          0.0533333 -0.015 0.0
          0.05 -0.015 0.0
          0.0466667 -0.015 0.0
          0.0433333 -0.015 0.0
          0.04 -0.015 0.0
          0.0366667 -0.015 0.0
          0.0333333 -0.015 0.0
          0.03 -0.015 0.0
          0.0266667 -0.015 0.0
          0.0233333 -0.015 0.0
          0.02 -0.015 0.0
          0.0166667 -0.015 0.0
          0.0133333 -0.015 0.0
          0.01 -0.015 0.0
          0.00666667 -0.015 0.0
          0.00333333 -0.015 0.0
          0 -0.015 0.0
          0.1 -0.0183333 0.0
          0.0966667 -0.0183333 0.0
          0.0933333 -0.0183333 0.0
          0.09 -0.0183333 0.0
          0.0866667 -0.0183333 0.0
          0.0833333 -0.0183333 0.0
          0.08 -0.0183333 0.0
          0.0766667 -0.0183333 0.0
          0.0733333 -0.0183333 0.0
          0.07 -0.0183333 0.0
          0.0666667 -0.0183333 0.0
          0.0633333 -0.0183333 0.0
          0.06 -0.0183333 0.0
          0.0566667 -0.0183333 0.0
          0.0533333 -0.0183333 0.0
          0.05 -0.0183333 0.0
          0.0466667 -0.0183333 0.0
          0.0433333 -0.0183333 0.0
          0.04 -0.0183333 0.0
          0.0366667 -0.0183333 0.0
          0.0333333 -0.0183333 0.0
          0.03 -0.0183333 0.0
          0.0266667 -0.0183333 0.0
          0.0233333 -0.0183333 0.0
          0.02 -0.0183333 0.0
          0.0166667 -0.0183333 0.0
          0.0133333 -0.0183333 0.0
          0.01 -0.0183333 0.0
          0.00666667 -0.0183333 0.0
          0.00333333 -0.0183333 0.0
          0 -0.0183333 0.0
          0.1 -0.0216667 0.0
          0.0966667 -0.0216667 0.0
          0.0933333 -0.0216667 0.0
          0.09 -0.0216667 0.0
          0.0866667 -0.0216667 0.0
          0.0833333 -0.0216667 0.0
          0.08 -0.0216667 0.0
          0.0766667 -0.0216667 0.0
          0.0733333 -0.0216667 0.0
          0.07 -0.0216667 0.0
          0.0666667 -0.0216667 0.0
          0.0633333 -0.0216667 0.0
          0.06 -0.0216667 0.0
          0.0566667 -0.0216667 0.0
          0.0533333 -0.0216667 0.0
          0.05 -0.0216667 0.0
          0.0466667 -0.0216667 0.0
          0.0433333 -0.0216667 0.0
          0.04 -0.0216667 0.0
          0.0366667 -0.0216667 0.0
          0.0333333 -0.0216667 0.0
          0.03 -0.0216667 0.0
          0.0266667 -0.0216667 0.0
          0.0233333 -0.0216667 0.0
          0.02 -0.0216667 0.0
          0.0166667 -0.0216667 0.0
          0.0133333 -0.0216667 0.0
          0.01 -0.0216667 0.0
          0.00666667 -0.0216667 0.0
          0.00333333 -0.0216667 0.0
          0 -0.0216667 0.0
          0.1 -0.025 0.0
          0.0966667 -0.025 0.0
          0.0933333 -0.025 0.0
          0.09 -0.025 0.0
          0.0866667 -0.025 0.0
          0.0833333 -0.025 0.0
          0.08 -0.025 0.0
          0.0766667 -0.025 0.0
          0.0733333 -0.025 0.0
          0.07 -0.025 0.0
          0.0666667 -0.025 0.0
          0.0633333 -0.025 0.0
          0.06 -0.025 0.0
          0.0566667 -0.025 0.0
          0.0533333 -0.025 0.0
          0.05 -0.025 0.0
          0.0466667 -0.025 0.0
          0.0433333 -0.025 0.0
          0.04 -0.025 0.0
          0.0366667 -0.025 0.0
          0.0333333 -0.025 0.0
          0.03 -0.025 0.0
          0.0266667 -0.025 0.0
          0.0233333 -0.025 0.0
          0.02 -0.025 0.0
          0.0166667 -0.025 0.0
          0.0133333 -0.025 0.0
          0.01 -0.025 0.0
          0.00666667 -0.025 0.0
          0.00333333 -0.025 0.0
          0 -0.025 0.0
          0.1 -0.0283333 0.0
          0.0966667 -0.0283333 0.0
          0.0933333 -0.0283333 0.0
          0.09 -0.0283333 0.0
          0.0866667 -0.0283333 0.0
          0.0833333 -0.0283333 0.0
          0.08 -0.0283333 0.0
          0.0766667 -0.0283333 0.0
          0.0733333 -0.0283333 0.0
          0.07 -0.0283333 0.0
          0.0666667 -0.0283333 0.0
          0.0633333 -0.0283333 0.0
          0.06 -0.0283333 0.0
          0.0566667 -0.0283333 0.0
          0.0533333 -0.0283333 0.0
          0.05 -0.0283333 0.0
          0.0466667 -0.0283333 0.0
          0.0433333 -0.0283333 0.0
          0.04 -0.0283333 0.0
          0.0366667 -0.0283333 0.0
          0.0333333 -0.0283333 0.0
          0.03 -0.0283333 0.0
          0.0266667 -0.0283333 0.0
          0.0233333 -0.0283333 0.0
          0.02 -0.0283333 0.0
          0.0166667 -0.0283333 0.0
          0.0133333 -0.0283333 0.0
          0.01 -0.0283333 0.0
          0.00666667 -0.0283333 0.0
          0.00333333 -0.0283333 0.0
          0 -0.0283333 0.0
          0.1 -0.0316667 0.0
          0.0966667 -0.0316667 0.0
          0.0933333 -0.0316667 0.0
          0.09 -0.0316667 0.0
          0.0866667 -0.0316667 0.0
          0.0833333 -0.0316667 0.0
          0.08 -0.0316667 0.0
          0.0766667 -0.0316667 0.0
          0.0733333 -0.0316667 0.0
          0.07 -0.0316667 0.0
          0.0666667 -0.0316667 0.0
          0.0633333 -0.0316667 0.0
          0.06 -0.0316667 0.0
          0.0566667 -0.0316667 0.0
          0.0533333 -0.0316667 0.0
          0.05 -0.0316667 0.0
          0.0466667 -0.0316667 0.0
          0.0433333 -0.0316667 0.0
          0.04 -0.0316667 0.0
          0.0366667 -0.0316667 0.0
          0.0333333 -0.0316667 0.0
          0.03 -0.0316667 0.0
          0.0266667 -0.0316667 0.0
          0.0233333 -0.0316667 0.0
          0.02 -0.0316667 0.0
          0.0166667 -0.0316667 0.0
          0.0133333 -0.0316667 0.0
          0.01 -0.0316667 0.0
          0.00666667 -0.0316667 0.0
          0.00333333 -0.0316667 0.0
          0 -0.0316667 0.0
          0.1 -0.035 0.0
          0.0966667 -0.035 0.0
          0.0933333 -0.035 0.0
          0.09 -0.035 0.0
          0.0866667 -0.035 0.0
          0.0833333 -0.035 0.0
          0.08 -0.035 0.0
          0.0766667 -0.035 0.0
          0.0733333 -0.035 0.0
          0.07 -0.035 0.0
          0.0666667 -0.035 0.0
          0.0633333 -0.035 0.0
          0.06 -0.035 0.0
          0.0566667 -0.035 0.0
          0.0533333 -0.035 0.0
          0.05 -0.035 0.0