<?xml version="1.0"?>
<VTKFile type="UnstructuredGrid" version="0.1" byte_order="LittleEndian">
  <UnstructuredGrid>
    <Piece NumberOfPoints="961" NumberOfCells="900">
      <PointData Scalars="Temperature">
        <DataArray type="Float32" Name="Temperature" format="ascii">
          21.0352
          22.5483
          24.1148
          25.6772
          26.9889
          27.8514
          28.181
          28.1584
          28.0457
          28.0594
          28.2128
          28.3635
          28.3647
          28.2172
          28.0699
          28.0711
          28.2206
          28.3698
          28.3701
          28.2215
          28.0713
          28.0627
          28.1829
          28.2233
          27.9353
          27.1588
          25.988
          24.6251
          23.314
          22.1217
          21.0275
          22.5022
          83.3762
          148.63
          214.081
          270.762
          306.116
          318.548
          314.835
          308.449
          308.906
          316.776
          324.543
          324.587
          316.94
          309.304
          309.355
          317.084
          324.796
          324.809
          317.121
          309.387
          309.127
          315.81
          320.103
          309.243
          277.262
          226.424
          169.165
          114.361
          66.4427
          22.093
          23.8455
          139.452
          265.004
          415.034
          536.814
          614.014
          626.32
          603.488
          578.065
          578.606
          605.624
          632.5
          632.543
          605.854
          579.198
          579.325
          606.169
          632.979
          632.992
          606.245
          579.474
          579.352
          605.24
          628.753
          618.004
          547.047
          436.773
          303.763
          198.349
          107.287
          23.0764
          24.9594
          185.731
          361.799
          572.406
          951.531
          951.573
          951.583
          951.565
          779.678
          780.092
          952.38
          952.402
          952.402
          952.38
          780.694
          780.881
          953.062
          953.084
          953.084
          953.062
          781.226
          781.382
          954.241
          954.26
          954.251
          954.212
          601.202
          415.883
          268.483
          141.75
          23.9087
          25.7678
          218.92
          426.425
          672.083
          951.638
          951.654
          951.663
          951.662
          897.593
          897.86
          952.478
          952.481
          952.481
          952.478
          898.397
          898.624
          953.16
          953.163
          953.163
          953.16
          899.13
          899.528
          954.336
          954.337
          954.329
          954.316
          705.986
          492.732
          320.522
          168.052
          24.5501
          26.2748
          238.978
          461.809
          700.462
          951.836
          951.849
          951.857
          951.859
          934.737
          935.005
          952.677
          952.678
          952.678
          952.677
          935.505
          935.732
          953.357
          953.358
          953.358
          953.357
          936.33
          936.726
          954.527
          954.526
          954.519
          954.508
          738.94
          537.36
          354.371
          186.12
          24.9972
          26.5467
          249.392
          477.112
          711.948
          952.138
          952.151
          952.158
          952.161
          946.635
          946.905
          952.984
          952.984
          952.984
          952.984
          947.394
          947.62
          953.662
          953.662
          953.662
          953.662
          948.243
          948.635
          954.819
          954.817
          954.811
          954.801
          753.834
          559.31
          374.153
          197.347
          25.2806
          26.6773
          254.196
          483.977
          717.011
          952.545
          952.558
          952.565
          952.567
          950.686
          950.958
          953.398
          953.398
          953.398
          953.398
          951.444
          951.67
          954.073
          954.074
          954.074
          954.073
          952.296
          952.681
          955.212
          955.21
          955.204
          955.194
          761.257
          570.645
          384.927
          203.813
          25.4464
          26.7367
          256.414
          487.158
          719.463
          953.056
          953.068
          953.075
          953.077
          952.346
          952.622
          953.919
          953.919
          953.919
          953.919
          953.11
          953.334
          954.59
          954.59
          954.59
          954.59
          953.953
          954.33
          955.704
          955.703
          955.697
          955.687
          765.252
          576.679
          390.767
          207.384
          25.539
          26.7656
          257.492
          488.754
          720.832
          953.668
          953.68
          953.688
          953.69
          953.328
          953.608
          954.545
          954.545
          954.545
          954.545
          954.099
          954.321
          955.211
          955.211
          955.212
          955.211
          954.929
          955.296
          956.295
          956.293
          956.288
          956.278
          767.587
          580.028
          393.983
          209.356
          25.5902
          26.7811
          258.082
          489.683
          721.771
          954.382
          954.394
          954.401
          954.404
          954.167
          954.453
          955.275
          955.275
          955.275
          955.275
          954.947
          955.168
          955.936
          955.936
          955.936
          955.936
          955.762
          956.117
          956.983
          956.982
          956.976
          956.966
          769.113
          582.016
          395.833
          210.478
          25.6192
          26.7911
          258.472
          490.349
          722.564
          955.195
          955.207
          955.214
          955.216
          955.031
          955.323
          956.106
          956.106
          956.106
          956.106
          955.822
          956.04
          956.761
          956.761
          956.761
          956.761
          956.618
          956.959
          957.767
          957.765
          957.759
          957.749
          770.26
          583.325
          396.987
          211.162
          25.6368
          26.7991
          258.79
          490.927
          723.334
          956.105
          956.117
          956.124
          956.127
          955.97
          956.27
          957.038
          957.038
          957.038
          957.038
          956.773
          956.989
          957.685
          957.685
          957.685
          957.685
          957.548
          957.873
          958.644
          958.642
          958.636
          958.626
          771.248
          584.312
          397.8
          211.628
          25.6486
          26.8065
          259.09
          491.496
          724.136
          957.111
          957.123
          957.13
          957.132
          956.999
          957.306
          958.067
          958.067
          958.067
          958.067
          957.815
          958.029
          958.706
          958.706
          958.706
          958.706
          958.567
          958.875
          959.612
          959.61
          959.605
          959.595
          772.196
          585.17
          398.464
          211.996
          25.6579
          26.8141
          259.398
          492.09
          724.993
          958.209
          958.221
          958.229
          958.231
          958.12
          958.437
          959.192
          959.192
          959.192
          959.192
          958.951
          959.162
          959.822
          959.822
          959.822
          959.822
          959.677
          959.965
          960.67
          960.668
          960.662
          960.652
          773.169
          586.007
          399.089
          212.336
          25.6664
          26.8223
          259.73
          492.73
          725.918
          959.398
          959.41
          959.417
          959.42
          959.333
          959.659
          960.409
          960.409
          960.409
          960.409
          960.18
          960.387
          961.03
          961.03
          961.03
          961.03
          960.878
          961.145
          961.814
          961.812
          961.806
          961.797
          774.215
          586.901
          399.754
          212.696
          25.6754
          26.8311
          260.097
          493.433
          726.923
          960.675
          960.687
          960.694
          960.696
          960.635
          960.971
          961.716
          961.716
          961.716
          961.716
          961.499
          961.703
          962.326
          962.326
          962.326
          962.326
          962.167
          962.411
          963.042
          963.04
          963.034
          963.025
          775.379
          587.928
          400.535
          213.125
          25.6859
          26.8428
          260.523
          494.23
          728.028
          962.036
          962.048
          962.055
          962.058
          962.023
          962.369
          963.109
          963.109
          963.109
          963.109
          962.905
          963.105
          963.708
          963.708
          963.708
          963.708
          963.54
          963.76
          964.351
          964.349
          964.344
          964.334
          776.73
          589.201
          401.547
          213.694
          25.7014
          26.852
          261.059
          495.19
          729.28
          963.478
          963.491
          963.498
          963.5
          963.494
          963.852
          964.585
          964.585
          964.585
          964.585
          964.395
          964.591
          965.172
          965.172
          965.172
          965.172
          964.996
          965.189
          965.738
          965.736
          965.73
          965.721
          778.387
          590.917
          402.989
          214.531
          25.7185
          26.8884
          261.807
          496.469
          730.786
          964.999
          965.011
          965.018
          965.021
          965.044
          965.414
          966.14
          966.14
          966.14
          966.14
          965.965
          966.156
          966.714
          966.714
          966.714
          966.714
          966.529
          966.696
          967.2
          967.198
          967.192
          967.182
          780.576
          593.444
          405.234
          215.862
          25.7699
          26.8522
          263.053
          498.41
          732.794
          966.594
          966.606
          966.614
          966.616
          966.671
          967.052
          967.771
          967.771
          967.771
          967.771
          967.611
          967.798
          968.332
          968.332
          968.332
          968.332
          968.138
          968.275
          968.732
          968.73
          968.724
          968.715
          783.719
          597.478
          408.979
          218.163
          25.7605
          27.187
          265.252
          501.855
          735.861
          968.26
          968.272
          968.279
          968.282
          968.37
          968.764
          969.473
          969.474
          969.474
          969.474
          969.331
          969.513
          970.02
          970.02
          970.02
          970.02
          969.817
          969.925
          970.331
          970.329
          970.324
          970.314
          788.617
          604.33
          415.618
          222.176
          26.1416
          26.2131
          270.226
          508.501
          741.305
          969.992
          970.004
          970.012
          970.015
          970.141
          970.547
          971.243
          971.243
          971.243
          971.244
          971.122
          971.299
          971.775
          971.775
          971.775
          971.775
          971.567
          971.644
          971.994
          971.992
          971.986
          971.977
          796.728
          616.524
          427.628
          230.103
          25.2398
          30.8952
          279.071
          523.102
          751.858
          971.785
          971.798
          971.807
          971.811
          971.987
          972.404
          973.075
          973.075
          973.077
          973.077
          972.987
          973.158
          973.592
          973.592
          973.592
          973.592
          973.388
          973.434
          973.716
          973.714
          973.708
          973.699
          810.661
          638.494
          450.73
          243.465
          30.041
          13.8453
          307.081
          552.953
          774.314
          973.632
          973.647
          973.663
          973.67
          973.927
          974.353
          974.963
          974.965
          974.969
          974.971
          974.944
          975.109
          975.467
          975.467
          975.467
          975.467
          975.299
          975.313
          975.495
          975.492
          975.483
          975.474
          834.167
          678.96
          493.123
          277.931
          13.1203
          86.3066
          342.329
          628.387
          817.941
          975.517
          975.543
          975.579
          975.598
          976.032
          976.457
          976.9
          976.906
          976.918
          976.924
          977.057
          977.212
          977.394
          977.395
          977.395
          977.396
          977.362
          977.345
          977.331
          977.322
          977.305
          977.292
          870.923
          748.515
          585.603
          321.657
          85.9032
          -193.815
          570.985
          773.126
          888.814
          977.408
          977.454
          977.574
          977.617
          978.53
          978.914
          978.87
          978.885
          978.926
          978.941
          979.537
          979.671
          979.369
          979.37
          979.373
          979.374
          979.775
          979.737
          979.231
          979.212
          979.158
          979.136
          921.658
          852.801
          751.385
          560.811
          -194.428
          974.793
          977.784
          979.261
          979.961
          979.484
          979.208
          979.438
          980.277
          981.891
          982.16
          981.202
          980.705
          980.785
          981.479
          982.841
          982.926
          981.777
          981.191
          981.197
          981.798
          982.978
          982.924
          981.635
          980.965
          980.862
          981.282
          982.086
          981.788
          980.919
          979.358
          976.339
          976.309
          978.314
          979.636
          980.307
          980.589
          980.745
          981.075
          981.664
          982.234
          982.497
          982.414
          982.281
          982.396
          982.789
          983.173
          983.255
          983.021
          982.764
          982.772
          983.049
          983.304
          983.25
          982.887
          982.495
          982.345
          982.401
          982.388
          982.07
          981.253
          979.864
          977.835
          978.372
          979.5
          980.433
          981.127
          981.584
          981.934
          982.297
          982.7
          983.065
          983.299
          983.398
          983.458
          983.584
          983.785
          983.969
          984.04
          983.995
          983.928
          983.937
          984.021
          984.085
          984.03
          983.851
          983.637
          983.469
          983.333
          983.119
          982.69
          981.966
          980.992
          979.849
          979.711
          980
          980.795
          981.466
          981.965
          982.359
          982.726
          983.088
          983.406
          983.633
          983.77
          983.873
          984
          984.158
          984.298
          984.366
          984.361
          984.336
          984.345
          984.387
          984.408
          984.352
          984.213
          984.038
          983.866
          983.685
          983.416
          982.964
          982.286
          981.467
          981.167
        </DataArray>
      </PointData>
      <CellData>
      </CellData>
      <Points>
        <DataArray type="Float32" NumberOfComponents="3" format="ascii">
          0.1 0.005 0.0
          0.0966667 0.005 0.0
          0.0933333 0.005 0.0
          0.09 0.005 0.0
          0.0866667 0.005 0.0
          0.0833333 0.005 0.0
          0.08 0.005 0.0
          0.0766667 0.005 0.0
          0.0733333 0.005 0.0
          0.07 0.005 0.0
          0.0666667 0.005 0.0
          0.0633333 0.005 0.0
          0.06 0.005 0.0
          0.0566667 0.005 0.0
          0.0533333 0.005 0.0
          0.05 0.005 0.0
          0.0466667 0.005 0.0
          0.0433333 0.005 0.0
          0.04 0.005 0.0
          0.0366667 0.005 0.0
          0.0333333 0.005 0.0
          0.03 0.005 0.0
          0.0266667 0.005 0.0
          0.0233333 0.005 0.0
          0.02 0.005 0.0
          0.0166667 0.005 0.0
          0.0133333 0.005 0.0
          0.01 0.005 0.0
          0.00666667 0.005 0.0
          0.00333333 0.005 0.0
          0 0.005 0.0
          0.1 0.00166667 0.0
          0.0966667 0.00166667 0.0
          0.0933333 0.00166667 0.0
          0.09 0.00166667 0.0
          0.0866667 0.00166667 0.0
          0.0833333 0.00166667 0.0
          0.08 0.00166667 0.0
          0.0766667 0.00166667 0.0
          0.0733333 0.00166667 0.0
          0.07 0.00166667 0.0
          0.0666667 0.00166667 0.0
          0.0633333 0.00166667 0.0
          0.06 0.00166667 0.0
          0.0566667 0.00166667 0.0
          0.0533333 0.00166667 0.0
          0.05 0.00166667 0.0
          0.0466667 0.00166667 0.0
          0.0433333 0.00166667 0.0
          0.04 0.00166667 0.0
          0.0366667 0.00166667 0.0
          0.0333333 0.00166667 0.0
          0.03 0.00166667 0.0
          0.0266667 0.00166667 0.0
          0.0233333 0.00166667 0.0
          0.02 0.00166667 0.0
          0.0166667 0.00166667 0.0
          0.0133333 0.00166667 0.0
          0.01 0.00166667 0.0
          0.00666667 0.00166667 0.0
          0.00333333 0.00166667 0.0
          0 0.00166667 0.0
          0.1 -0.00166667 0.0
          0.0966667 -0.00166667 0.0
          0.0933333 -0.00166667 0.0
          0.09 -0.00166667 0.0
          0.0866667 -0.00166667 0.0
          0.0833333 -0.00166667 0.0
          0.08 -0.00166667 0.0
          0.0766667 -0.00166667 0.0
          0.0733333 -0.00166667 0.0
          0.07 -0.00166667 0.0
          0.0666667 -0.00166667 0.0
          0.0633333 -0.00166667 0.0
          0.06 -0.00166667 0.0
          0.0566667 -0.00166667 0.0
          0.0533333 -0.00166667 0.0
          0.05 -0.00166667 0.0
          0.0466667 -0.00166667 0.0
          0.0433333 -0.00166667 0.0
          0.04 -0.00166667 0.0
          0.0366667 -0.00166667 0.0
          0.0333333 -0.00166667 0.0
          0.03 -0.00166667 0.0
          0.0266667 -0.00166667 0.0
          0.0233333 -0.00166667 0.0
          0.02 -0.00166667 0.0
          0.0166667 -0.00166667 0.0
          0.0133333 -0.00166667 0.0
          0.01 -0.00166667 0.0
          0.00666667 -0.00166667 0.0
          0.00333333 -0.00166667 0.0
          0 -0.00166667 0.0
          0.1 -0.005 0.0
          0.0966667 -0.005 0.0
          0.0933333 -0.005 0.0
          0.09 -0.005 0.0
          0.0866667 -0.005 0.0
          0.0833333 -0.005 0.0
          0.08 -0.005 0.0
          0.0766667 -0.005 0.0
          0.0733333 -0.005 0.0
          0.07 -0.005 0.0
          0.0666667 -0.005 0.0
          0.0633333 -0.005 0.0
          0.06 -0.005 0.0
          0.0566667 -0.005 0.0
          0.0533333 -0.005 0.0
          0.05 -0.005 0.0
          0.0466667 -0.005 0.0
          0.0433333 -0.005 0.0
          0.04 -0.005 0.0
          0.0366667 -0.005 0.0
          0.0333333 -0.005 0.0
          0.03 -0.005 0.0
          0.0266667 -0.005 0.0
          0.0233333 -0.005 0.0
          0.02 -0.005 0.0
          0.0166667 -0.005 0.0
          0.0133333 -0.005 0.0
          0.01 -0.005 0.0
          0.00666667 -0.005 0.0
          0.00333333 -0.005 0.0
          0 -0.005 0.0
          0.1 -0.00833333 0.0
          0.0966667 -0.00833333 0.0
          0.0933333 -0.00833333 0.0
          0.09 -0.00833333 0.0
          0.0866667 -0.00833333 0.0
          0.0833333 -0.00833333 0.0
          0.08 -0.00833333 0.0
          0.0766667 -0.00833333 0.0
          0.0733333 -0.00833333 0.0
          0.07 -0.00833333 0.0
          0.0666667 -0.00833333 0.0
          0.0633333 -0.00833333 0.0
          0.06 -0.00833333 0.0
          0.0566667 -0.00833333 0.0
          0.0533333 -0.00833333 0.0
          0.05 -0.00833333 0.0
          0.0466667 -0.00833333 0.0
          0.0433333 -0.00833333 0.0
          0.04 -0.00833333 0.0
          0.0366667 -0.00833333 0.0
          0.0333333 -0.00833333 0.0
          0.03 -0.00833333 0.0
          0.0266667 -0.00833333 0.0
          0.0233333 -0.00833333 0.0
          0.02 -0.00833333 0.0
          0.0166667 -0.00833333 0.0
          0.0133333 -0.00833333 0.0
          0.01 -0.00833333 0.0
          0.00666667 -0.00833333 0.0
          0.00333333 -0.00833333 0.0
          0 -0.00833333 0.0
          0.1 -0.0116667 0.0
          0.0966667 -0.0116667 0.0
          0.0933333 -0.0116667 0.0
          0.09 -0.0116667 0.0
          0.0866667 -0.0116667 0.0
          0.0833333 -0.0116667 0.0
          0.08 -0.0116667 0.0
          0.0766667 -0.0116667 0.0
          0.0733333 -0.0116667 0.0
          0.07 -0.0116667 0.0
          0.0666667 -0.0116667 0.0
          0.0633333 -0.0116667 0.0
          0.06 -0.0116667 0.0
          0.0566667 -0.0116667 0.0
          0.0533333 -0.0116667 0.0
          0.05 -0.0116667 0.0
          0.0466667 -0.0116667 0.0
          0.0433333 -0.0116667 0.0
          0.04 -0.0116667 0.0
          0.0366667 -0.0116667 0.0
          0.0333333 -0.0116667 0.0
          0.03 -0.0116667 0.0
          0.0266667 -0.0116667 0.0
          0.0233333 -0.0116667 0.0
          0.02 -0.0116667 0.0
          0.0166667 -0.0116667 0.0
          0.0133333 -0.0116667 0.0
          0.01 -0.0116667 0.0
          0.00666667 -0.0116667 0.0
          0.00333333 -0.0116667 0.0
          0 -0.0116667 0.0
          0.1 -0.015 0.0
          0.0966667 -0.015 0.0
          0.0933333 -0.015 0.0
          0.09 -0.015 0.0
          0.0866667 -0.015 0.0
          0.0833333 -0.015 0.0
          0.08 -0.015 0.0
          0.0766667 -0.015 0.0
          0.0733333 -0.015 0.0
          0.07 -0.015 0.0
          0.0666667 -0.015 0.0
          0.0633333 -0.015 0.0
          0.06 -0.015 0.0
          0.0566667 -0.015 0.0
          0.0533333 -0.015 0.0
          0.05 -0.015 0.0
          0.0466667 -0.015 0.0
          0.0433333 -0.015 0.0
          0.04 -0.015 0.0
          0.0366667 -0.015 0.0
          0.0333333 -0.015 0.0
          0.03 -0.015 0.0
          0.0266667 -0.015 0.0
          0.0233333 -0.015 0.0
          0.02 -0.015 0.0
          0.0166667 -0.015 0.0
          0.0133333 -0.015 0.0
          0.01 -0.015 0.0
          0.00666667 -0.015 0.0
          0.00333333 -0.015 0.0
          0 -0.015 0.0
          0.1 -0.0183333 0.0
          0.0966667 -0.0183333 0.0
          0.0933333 -0.0183333 0.0
          0.09 -0.0183333 0.0
          0.0866667 -0.0183333 0.0
          0.0833333 -0.0183333 0.0
          0.08 -0.0183333 0.0
          0.0766667 -0.0183333 0.0
          0.0733333 -0.0183333 0.0
          0.07 -0.0183333 0.0
          0.0666667 -0.0183333 0.0
          0.0633333 -0.0183333 0.0
          0.06 -0.0183333 0.0
          0.0566667 -0.0183333 0.0
          0.0533333 -0.0183333 0.0
          0.05 -0.0183333 0.0
          0.0466667 -0.0183333 0.0
          0.0433333 -0.0183333 0.0
          0.04 -0.0183333 0.0
          0.0366667 -0.0183333 0.0
          0.0333333 -0.0183333 0.0
          0.03 -0.0183333 0.0
          0.0266667 -0.0183333 0.0
          0.0233333 -0.0183333 0.0
          0.02 -0.0183333 0.0
          0.0166667 -0.0183333 0.0
          0.0133333 -0.0183333 0.0
          0.01 -0.0183333 0.0
          0.00666667 -0.0183333 0.0
          0.00333333 -0.0183333 0.0
          0 -0.0183333 0.0
          0.1 -0.0216667 0.0
          0.0966667 -0.0216667 0.0
          0.0933333 -0.0216667 0.0
          0.09 -0.0216667 0.0
          0.0866667 -0.0216667 0.0
          0.0833333 -0.0216667 0.0
          0.08 -0.0216667 0.0
          0.0766667 -0.0216667 0.0
          0.0733333 -0.0216667 0.0
          0.07 -0.0216667 0.0
          0.0666667 -0.0216667 0.0
          0.0633333 -0.0216667 0.0
          0.06 -0.0216667 0.0
          0.0566667 -0.0216667 0.0
          0.0533333 -0.0216667 0.0
          0.05 -0.0216667 0.0
          0.0466667 -0.0216667 0.0
          0.0433333 -0.0216667 0.0
          0.04 -0.0216667 0.0
          0.0366667 -0.0216667 0.0
          0.0333333 -0.0216667 0.0
          0.03 -0.0216667 0.0
          0.0266667 -0.0216667 0.0
          0.0233333 -0.0216667 0.0
          0.02 -0.0216667 0.0
          0.0166667 -0.0216667 0.0
          0.0133333 -0.0216667 0.0
          0.01 -0.0216667 0.0
          0.00666667 -0.0216667 0.0
          0.00333333 -0.0216667 0.0
          0 -0.0216667 0.0
          0.1 -0.025 0.0
          0.0966667 -0.025 0.0
          0.0933333 -0.025 0.0
          0.09 -0.025 0.0
          0.0866667 -0.025 0.0
          0.0833333 -0.025 0.0
          0.08 -0.025 0.0
          0.0766667 -0.025 0.0
          0.0733333 -0.025 0.0
          0.07 -0.025 0.0
          0.0666667 -0.025 0.0
          0.0633333 -0.025 0.0
          0.06 -0.025 0.0
          0.0566667 -0.025 0.0
          0.0533333 -0.025 0.0
          0.05 -0.025 0.0
          0.0466667 -0.025 0.0
          0.0433333 -0.025 0.0
          0.04 -0.025 0.0
          0.0366667 -0.025 0.0
          0.0333333 -0.025 0.0
          0.03 -0.025 0.0
          0.0266667 -0.025 0.0
          0.0233333 -0.025 0.0
          0.02 -0.025 0.0
          0.0166667 -0.025 0.0
          0.0133333 -0.025 0.0
          0.01 -0.025 0.0
          0.00666667 -0.025 0.0
          0.00333333 -0.025 0.0
          0 -0.025 0.0
          0.1 -0.0283333 0.0
          0.0966667 -0.0283333 0.0
          0.0933333 -0.0283333 0.0
          0.09 -0.0283333 0.0
          0.0866667 -0.0283333 0.0
          0.0833333 -0.0283333 0.0
          0.08 -0.0283333 0.0
          0.0766667 -0.0283333 0.0
          0.0733333 -0.0283333 0.0
          0.07 -0.0283333 0.0
          0.0666667 -0.0283333 0.0
          0.0633333 -0.0283333 0.0
          0.06 -0.0283333 0.0
          0.0566667 -0.0283333 0.0
          0.0533333 -0.0283333 0.0
          0.05 -0.0283333 0.0
          0.0466667 -0.0283333 0.0
          0.0433333 -0.0283333 0.0
          0.04 -0.0283333 0.0
          0.0366667 -0.0283333 0.0
          0.0333333 -0.0283333 0.0
          0.03 -0.0283333 0.0
          0.0266667 -0.0283333 0.0
          0.0233333 -0.0283333 0.0
          0.02 -0.0283333 0.0
          0.0166667 -0.0283333 0.0
          0.0133333 -0.0283333 0.0
          0.01 -0.0283333 0.0
          0.00666667 -0.0283333 0.0
          0.00333333 -0.0283333 0.0
          0 -0.0283333 0.0
          0.1 -0.0316667 0.0
          0.0966667 -0.0316667 0.0
          0.0933333 -0.0316667 0.0
          0.09 -0.0316667 0.0
          0.0866667 -0.0316667 0.0
          0.0833333 -0.0316667 0.0
          0.08 -0.0316667 0.0
          0.0766667 -0.0316667 0.0
          0.0733333 -0.0316667 0.0
          0.07 -0.0316667 0.0
          0.0666667 -0.0316667 0.0
          0.0633333 -0.0316667 0.0
          0.06 -0.0316667 0.0
          0.0566667 -0.0316667 0.0
          0.0533333 -0.0316667 0.0
          0.05 -0.0316667 0.0
          0.0466667 -0.0316667 0.0
          0.0433333 -0.0316667 0.0
          0.04 -0.0316667 0.0
          0.0366667 -0.0316667 0.0
          0.0333333 -0.0316667 0.0
          0.03 -0.0316667 0.0
          0.0266667 -0.0316667 0.0
          0.0233333 -0.0316667 0.0
          0.02 -0.0316667 0.0
          0.0166667 -0.0316667 0.0
          0.0133333 -0.0316667 0.0
          0.01 -0.0316667 0.0
          0.00666667 -0.0316667 0.0
          0.00333333 -0.0316667 0.0
          0 -0.0316667 0.0
          0.1 -0.035 0.0
          0.0966667 -0.035 0.0
          0.0933333 -0.035 0.0
          0.09 -0.035 0.0
          0.0866667 -0.035 0.0
          0.0833333 -0.035 0.0
          0.08 -0.035 0.0
          0.0766667 -0.035 0.0
          0.0733333 -0.035 0.0
          0.07 -0.035 0.0
          0.0666667 -0.035 0.0
          0.0633333 -0.035 0.0
          0.06 -0.035 0.0
          0.0566667 -0.035 0.0
          0.0533333 -0.035 0.0
          0.05 -0.035 0.0
          0.0466667 -0.035 0.0