<?xml version="1.0"?>
<VTKFile type="UnstructuredGrid" version="0.1" byte_order="LittleEndian">
  <UnstructuredGrid>
    <Piece NumberOfPoints="961" NumberOfCells="900">
      <PointData Scalars="Temperature">
        <DataArray type="Float32" Name="Temperature" format="ascii">
          47.4795
          47.4795
          47.4795
          47.4795
          47.4795
          47.4795
          47.4795
          47.4795
          47.4795
          47.4795
          47.4795
          47.4795
          47.4795
          47.4795
          47.4795
          47.4795
          47.4795
          47.4795
          47.4795
          47.4795
          47.4795
          47.4795
          47.4795
          47.4795
          47.4795
          47.4795
          47.4795
          47.4795
          47.4795
          47.4795
          47.4795
          47.4795
          47.4795
          47.4795
          47.4795
          47.4795
          47.4795
          47.4795
          47.4795
          47.4795
          47.4795
          47.4795
          47.4795
          47.4795
          47.4795
          47.4795
          47.4795
          47.4795
          47.4795
          47.4795
          47.4795
          47.4795
          47.4795
          47.4795
          47.4795
          47.4795
          47.4795
          47.4795
          47.4795
          47.4795
          47.4795
          47.4795
          47.4795
          47.4795
          47.4795
          47.4795
          47.4795
          47.4795
          47.4795
          47.4795
          47.4795
          47.4795
          47.4795
          47.4795
          47.4795
          47.4795
          47.4795
          47.4795
          47.4795
          47.4795
          47.4795
          47.4795
          47.4795
          47.4795
          47.4795
          47.4795
          47.4795
          47.4795
          47.4795
          47.4795
          47.4795
          47.4795
          47.4795
          47.4795
          47.4795
          47.4795
          47.4795
          72.6435
          72.6457
          72.6462
          72.6451
          47.4795
          47.4795
          72.9989
          73.0002
          73.0002
          72.9989
          47.4795
          47.4795
          73.0368
          73.038
          73.038
          73.0367
          47.4795
          47.4795
          72.7262
          72.7273
          72.7269
          72.7248
          47.4795
          47.4795
          47.4795
          47.4795
          47.4795
          47.4795
          47.4795
          47.4795
          47.4795
          72.6467
          72.6475
          72.648
          72.6479
          47.4795
          47.4795
          73.0016
          73.0018
          73.0018
          73.0016
          47.4795
          47.4795
          73.0394
          73.0396
          73.0396
          73.0394
          47.4795
          47.4795
          72.7289
          72.7291
          72.7287
          72.7279
          47.4795
          47.4795
          47.4795
          47.4795
          47.4795
          47.4795
          47.4795
          47.4795
          47.4795
          72.6497
          72.6505
          72.6508
          72.6508
          47.4795
          47.4795
          73.0041
          73.0042
          73.0042
          73.0041
          47.4795
          47.4795
          73.0419
          73.0421
          73.0421
          73.0419
          47.4795
          47.4795
          72.7318
          72.7319
          72.7315
          72.7309
          47.4795
          47.4795
          47.4795
          47.4795
          47.4795
          47.4795
          47.4795
          47.4795
          47.4795
          72.6533
          72.654
          72.6544
          72.6544
          47.4795
          47.4795
          73.007
          73.0071
          73.0071
          73.007
          47.4795
          47.4795
          73.0448
          73.0449
          73.0449
          73.0448
          47.4795
          47.4795
          72.7353
          72.7353
          72.735
          72.7344
          47.4795
          47.4795
          47.4795
          47.4795
          47.4795
          47.4795
          47.4795
          47.4795
          47.4795
          72.6575
          72.6582
          72.6585
          72.6586
          47.4795
          47.4795
          73.0102
          73.0103
          73.0103
          73.0102
          47.4795
          47.4795
          73.048
          73.0481
          73.0481
          73.048
          47.4795
          47.4795
          72.7393
          72.7393
          72.739
          72.7384
          47.4795
          47.4795
          47.4795
          47.4795
          47.4795
          47.4795
          47.4795
          47.4795
          47.4795
          72.6622
          72.6629
          72.6633
          72.6633
          47.4795
          47.4795
          73.0138
          73.0139
          73.0139
          73.0138
          47.4795
          47.4795
          73.0516
          73.0517
          73.0517
          73.0516
          47.4795
          47.4795
          72.7438
          72.7438
          72.7435
          72.743
          47.4795
          47.4795
          47.4795
          47.4795
          47.4795
          47.4795
          47.4795
          47.4795
          47.4795
          72.6676
          72.6682
          72.6686
          72.6686
          47.4795
          47.4795
          73.0177
          73.0178
          73.0178
          73.0177
          47.4795
          47.4795
          73.0556
          73.0556
          73.0556
          73.0556
          47.4795
          47.4795
          72.7489
          72.7489
          72.7486
          72.7481
          47.4795
          47.4795
          47.4795
          47.4795
          47.4795
          47.4795
          47.4795
          47.4795
          47.4795
          72.6735
          72.6741
          72.6745
          72.6745
          47.4795
          47.4795
          73.022
          73.0221
          73.0221
          73.022
          47.4795
          47.4795
          73.0599
          73.0599
          73.0599
          73.0598
          47.4795
          47.4795
          72.7545
          72.7545
          72.7542
          72.7537
          47.4795
          47.4795
          47.4795
          47.4795
          47.4795
          47.4795
          47.4795
          47.4795
          47.4795
          72.68
          72.6806
          72.681
          72.681
          47.4795
          47.4795
          73.0266
          73.0267
          73.0267
          73.0267
          47.4795
          47.4795
          73.0645
          73.0646
          73.0646
          73.0645
          47.4795
          47.4795
          72.7607
          72.7607
          72.7604
          72.7598
          47.4795
          47.4795
          47.4795
          47.4795
          47.4795
          47.4795
          47.4795
          47.4795
          47.4795
          72.687
          72.6877
          72.6881
          72.6881
          47.4795
          47.4795
          73.0316
          73.0317
          73.0317
          73.0316
          47.4795
          47.4795
          73.0695
          73.0696
          73.0696
          73.0695
          47.4795
          47.4795
          72.7674
          72.7674
          72.7671
          72.7665
          47.4795
          47.4795
          47.4795
          47.4795
          47.4795
          47.4795
          47.4795
          47.4795
          47.4795
          72.6947
          72.6954
          72.6957
          72.6958
          47.4795
          47.4795
          73.037
          73.0371
          73.0371
          73.037
          47.4795
          47.4795
          73.0748
          73.0749
          73.0749
          73.0748
          47.4795
          47.4795
          72.7746
          72.7746
          72.7743
          72.7738
          47.4795
          47.4795
          47.4795
          47.4795
          47.4795
          47.4795
          47.4795
          47.4795
          47.4795
          72.7029
          72.7036
          72.7039
          72.704
          47.4795
          47.4795
          73.0427
          73.0428
          73.0428
          73.0427
          47.4795
          47.4795
          73.0805
          73.0806
          73.0806
          73.0805
          47.4795
          47.4795
          72.7824
          72.7824
          72.7821
          72.7816
          47.4795
          47.4795
          47.4795
          47.4795
          47.4795
          47.4795
          47.4795
          47.4795
          47.4795
          72.7117
          72.7124
          72.7128
          72.7128
          47.4795
          47.4795
          73.0487
          73.0488
          73.0488
          73.0487
          47.4795
          47.4795
          73.0866
          73.0867
          73.0867
          73.0866
          47.4795
          47.4795
          72.7907
          72.7907
          72.7904
          72.7899
          47.4795
          47.4795
          47.4795
          47.4795
          47.4795
          47.4795
          47.4795
          47.4795
          47.4795
          72.7211
          72.7218
          72.7222
          72.7222
          47.4795
          47.4795
          73.0551
          73.0552
          73.0552
          73.0551
          47.4795
          47.4795
          73.093
          73.0931
          73.0931
          73.093
          47.4795
          47.4795
          72.7996
          72.7996
          72.7993
          72.7987
          47.4795
          47.4795
          47.4795
          47.4795
          47.4795
          47.4795
          47.4795
          47.4795
          47.4795
          72.7311
          72.7318
          72.7321
          72.7322
          47.4795
          47.4795
          73.0619
          73.0619
          73.0619
          73.0619
          47.4795
          47.4795
          73.0997
          73.0998
          73.0998
          73.0997
          47.4795
          47.4795
          72.809
          72.8089
          72.8086
          72.8081
          47.4795
          47.4795
          47.4795
          47.4795
          47.4795
          47.4795
          47.4795
          47.4795
          47.4795
          72.7417
          72.7424
          72.7427
          72.7428
          47.4795
          47.4795
          73.069
          73.069
          73.069
          73.069
          47.4795
          47.4795
          73.1068
          73.1069
          73.1069
          73.1068
          47.4795
          47.4795
          72.8189
          72.8189
          72.8186
          72.818
          47.4795
          47.4795
          47.4795
          47.4795
          47.4795
          47.4795
          47.4795
          47.4795
          47.4795
          72.7528
          72.7535
          72.7539
          72.7539
          47.4795
          47.4795
          73.0764
          73.0765
          73.0765
          73.0764
          47.4795
          47.4795
          73.1143
          73.1144
          73.1144
          73.1143
          47.4795
          47.4795
          72.8293
          72.8293
          72.829
          72.8285
          47.4795
          47.4795
          47.4795
          47.4795
          47.4795
          47.4795
          47.4795
          47.4795
          47.4795
          72.7646
          72.7652
          72.7656
          72.7656
          47.4795
          47.4795
          73.0842
          73.0843
          73.0843
          73.0842
          47.4795
          47.4795
          73.1221
          73.1222
          73.1222
          73.1221
          47.4795
          47.4795
          72.8403
          72.8403
          72.84
          72.8394
          47.4795
          47.4795
          47.4795
          47.4795
          47.4795
          47.4795
          47.4795
          47.4795
          47.4795
          72.7768
          72.7775
          72.7779
          72.778
          47.4795
          47.4795
          73.0923
          73.0924
          73.0925
          73.0924
          47.4795
          47.4795
          73.1303
          73.1304
          73.1303
          73.1302
          47.4795
          47.4795
          72.8519
          72.8518
          72.8515
          72.851
          47.4795
          47.4795
          47.4795
          47.4795
          47.4795
          47.4795
          47.4795
          47.4795
          47.4795
          72.7897
          72.7904
          72.7908
          72.7909
          47.4795
          47.4795
          73.1008
          73.1009
          73.101
          73.101
          47.4795
          47.4795
          73.1389
          73.1389
          73.1388
          73.1387
          47.4795
          47.4795
          72.864
          72.8639
          72.8635
          72.863
          47.4795
          47.4795
          47.4795
          47.4795
          47.4795
          47.4795
          47.4795
          47.4795
          47.4795
          72.8029
          72.8037
          72.8044
          72.8046
          47.4795
          47.4795
          73.1094
          73.1096
          73.11
          73.11
          47.4795
          47.4795
          73.1479
          73.1478
          73.1476
          73.1474
          47.4795
          47.4795
          72.8768
          72.8766
          72.876
          72.8753
          47.4795
          47.4795
          47.4795
          47.4795
          47.4795
          47.4795
          47.4795
          47.4795
          47.4795
          72.8162
          72.8173
          72.8188
          72.8194
          47.4795
          47.4795
          73.118
          73.1185
          73.1195
          73.1199
          47.4795
          47.4795
          73.1575
          73.1573
          73.1566
          73.1562
          47.4795
          47.4795
          72.8906
          72.8901
          72.8887
          72.8877
          47.4795
          47.4795
          47.4795
          47.4795
          47.4795
          47.4795
          47.4795
          47.4795
          47.4795
          72.8282
          72.8307
          72.8346
          72.8366
          47.4795
          47.4795
          73.1253
          73.1271
          73.1301
          73.1316
          47.4795
          47.4795
          73.1686
          73.1675
          73.1655
          73.1643
          47.4795
          47.4795
          72.9068
          72.9048
          72.901
          72.8987
          47.4795
          47.4795
          47.4795
          47.4795
          47.4795
          47.4795
          47.4795
          47.4795
          47.4795
          72.8358
          72.8409
          72.8544
          72.8592
          47.4795
          47.4795
          73.129
          73.133
          73.1439
          73.1478
          47.4795
          47.4795
          73.1828
          73.1801
          73.1727
          73.1699
          47.4795
          47.4795
          72.9284
          72.9236
          72.9102
          72.9052
          47.4795
          47.4795
          47.4795
          47.4795
          47.4795
          72.6115
          72.6811
          72.7298
          72.7739
          72.8222
          72.8479
          72.8741
          72.9121
          72.9905
          73.0496
          73.1107
          73.1386
          73.1602
          73.1835
          73.2181
          73.2258
          73.2094
          73.1951
          73.1803
          73.1595
          73.1093
          73.055
          72.9796
          72.9424
          72.9163
          72.8905
          72.8419
          72.7992
          72.7553
          72.7067
          72.6372
          72.6399
          72.6877
          72.7322
          72.7746
          72.8142
          72.8518
          72.8901
          72.9375
          72.9924
          73.0518
          73.1043
          73.1477
          73.1806
          73.2076
          73.2266
          73.2342
          73.229
          73.2145
          73.1925
          73.1589
          73.1135
          73.0581
          73.0046
          72.9578
          72.9197
          72.8819
          72.8421
          72.8
          72.7579
          72.7134
          72.6655
          72.6714
          72.7006
          72.7361
          72.7749
          72.8145
          72.8548
          72.8978
          72.9454
          72.9982
          73.0549
          73.1145
          73.1673
          73.2064
          73.2341
          73.2518
          73.2588
          73.2549
          73.2404
          73.2151
          73.1772
          73.1245
          73.0662
          73.0129
          72.9653
          72.9223
          72.8816
          72.8414
          72.8012
          72.762
          72.7264
          72.6971
          72.6946
          72.706
          72.738
          72.7754
          72.8149
          72.856
          72.8999
          72.9477
          73.0001
          73.057
          73.1216
          73.1805
          73.2213
          73.2497
          73.2672
          73.2741
          73.2703
          73.2556
          73.2295
          73.19
          73.1321
          73.0693
          73.0156
          72.9674
          72.9234
          72.8818
          72.8414
          72.8017
          72.764
          72.7318
          72.7204
        </DataArray>
      </PointData>
      <CellData>
      </CellData>
      <Points>
        <DataArray type="Float32" NumberOfComponents="3" format="ascii">
          0.039 0.00195 0.0
          0.0377 0.00195 0.0
          0.0364 0.00195 0.0
          0.0351 0.00195 0.0
          0.0338 0.00195 0.0
          0.0325 0.00195 0.0
          0.0312 0.00195 0.0
          0.0299 0.00195 0.0
          0.0286 0.00195 0.0
          0.0273 0.00195 0.0
          0.026 0.00195 0.0
          0.0247 0.00195 0.0
          0.0234 0.00195 0.0
          0.0221 0.00195 0.0
          0.0208 0.00195 0.0
          0.0195 0.00195 0.0
          0.0182 0.00195 0.0
          0.0169 0.00195 0.0
          0.0156 0.00195 0.0
          0.0143 0.00195 0.0
          0.013 0.00195 0.0
          0.0117 0.00195 0.0
          0.0104 0.00195 0.0
          0.0091 0.00195 0.0
          0.0078 0.00195 0.0
          0.0065 0.00195 0.0
          0.0052 0.00195 0.0
          0.0039 0.00195 0.0
          0.0026 0.00195 0.0
          0.0013 0.00195 0.0
          0 0.00195 0.0
          0.039 0.00065 0.0
          0.0377 0.00065 0.0
          0.0364 0.00065 0.0
          0.0351 0.00065 0.0
          0.0338 0.00065 0.0
          0.0325 0.00065 0.0
          0.0312 0.00065 0.0
          0.0299 0.00065 0.0
          0.0286 0.00065 0.0
          0.0273 0.00065 0.0
          0.026 0.00065 0.0
          0.0247 0.00065 0.0
          0.0234 0.00065 0.0
          0.0221 0.00065 0.0
          0.0208 0.00065 0.0
          0.0195 0.00065 0.0
          0.0182 0.00065 0.0
          0.0169 0.00065 0.0
          0.0156 0.00065 0.0
          0.0143 0.00065 0.0
          0.013 0.00065 0.0
          0.0117 0.00065 0.0
          0.0104 0.00065 0.0
          0.0091 0.00065 0.0
          0.0078 0.00065 0.0
          0.0065 0.00065 0.0
          0.0052 0.00065 0.0
          0.0039 0.00065 0.0
          0.0026 0.00065 0.0
          0.0013 0.00065 0.0
          0 0.00065 0.0
          0.039 -0.00065 0.0
          0.0377 -0.00065 0.0
          0.0364 -0.00065 0.0
          0.0351 -0.00065 0.0
          0.0338 -0.00065 0.0
          0.0325 -0.00065 0.0
          0.0312 -0.00065 0.0
          0.0299 -0.00065 0.0
          0.0286 -0.00065 0.0
          0.0273 -0.00065 0.0
          0.026 -0.00065 0.0
          0.0247 -0.00065 0.0
          0.0234 -0.00065 0.0
          0.0221 -0.00065 0.0
          0.0208 -0.00065 0.0
          0.0195 -0.00065 0.0
          0.0182 -0.00065 0.0
          0.0169 -0.00065 0.0
          0.0156 -0.00065 0.0
          0.0143 -0.00065 0.0
          0.013 -0.00065 0.0
          0.0117 -0.00065 0.0
          0.0104 -0.00065 0.0
          0.0091 -0.00065 0.0
          0.0078 -0.00065 0.0
          0.0065 -0.00065 0.0
          0.0052 -0.00065 0.0
          0.0039 -0.00065 0.0
          0.0026 -0.00065 0.0
          0.0013 -0.00065 0.0
          0 -0.00065 0.0
          0.039 -0.00195 0.0
          0.0377 -0.00195 0.0
          0.0364 -0.00195 0.0
          0.0351 -0.00195 0.0
          0.0338 -0.00195 0.0
          0.0325 -0.00195 0.0
          0.0312 -0.00195 0.0
          0.0299 -0.00195 0.0
          0.0286 -0.00195 0.0
          0.0273 -0.00195 0.0
          0.026 -0.00195 0.0
          0.0247 -0.00195 0.0
          0.0234 -0.00195 0.0
          0.0221 -0.00195 0.0
          0.0208 -0.00195 0.0
          0.0195 -0.00195 0.0
          0.0182 -0.00195 0.0
          0.0169 -0.00195 0.0
          0.0156 -0.00195 0.0
          0.0143 -0.00195 0.0
          0.013 -0.00195 0.0
          0.0117 -0.00195 0.0
          0.0104 -0.00195 0.0
          0.0091 -0.00195 0.0
          0.0078 -0.00195 0.0
          0.0065 -0.00195 0.0
          0.0052 -0.00195 0.0
          0.0039 -0.00195 0.0
          0.0026 -0.00195 0.0
          0.0013 -0.00195 0.0
          0 -0.00195 0.0
          0.039 -0.00325 0.0
          0.0377 -0.00325 0.0
          0.0364 -0.00325 0.0
          0.0351 -0.00325 0.0
          0.0338 -0.00325 0.0
          0.0325 -0.00325 0.0
          0.0312 -0.00325 0.0
          0.0299 -0.00325 0.0
          0.0286 -0.00325 0.0
          0.0273 -0.00325 0.0
          0.026 -0.00325 0.0
          0.0247 -0.00325 0.0
          0.0234 -0.00325 0.0
          0.0221 -0.00325 0.0
          0.0208 -0.00325 0.0
          0.0195 -0.00325 0.0
          0.0182 -0.00325 0.0
          0.0169 -0.00325 0.0
          0.0156 -0.00325 0.0
          0.0143 -0.00325 0.0
          0.013 -0.00325 0.0
          0.0117 -0.00325 0.0
          0.0104 -0.00325 0.0
          0.0091 -0.00325 0.0
          0.0078 -0.00325 0.0
          0.0065 -0.00325 0.0
          0.0052 -0.00325 0.0
          0.0039 -0.00325 0.0
          0.0026 -0.00325 0.0
          0.0013 -0.00325 0.0
          0 -0.00325 0.0
          0.039 -0.00455 0.0
          0.0377 -0.00455 0.0
          0.0364 -0.00455 0.0
          0.0351 -0.00455 0.0
          0.0338 -0.00455 0.0
          0.0325 -0.00455 0.0
          0.0312 -0.00455 0.0
          0.0299 -0.00455 0.0
          0.0286 -0.00455 0.0
          0.0273 -0.00455 0.0
          0.026 -0.00455 0.0
          0.0247 -0.00455 0.0
          0.0234 -0.00455 0.0
          0.0221 -0.00455 0.0
          0.0208 -0.00455 0.0
          0.0195 -0.00455 0.0
          0.0182 -0.00455 0.0
          0.0169 -0.00455 0.0
          0.0156 -0.00455 0.0
          0.0143 -0.00455 0.0
          0.013 -0.00455 0.0
          0.0117 -0.00455 0.0
          0.0104 -0.00455 0.0
          0.0091 -0.00455 0.0
          0.0078 -0.00455 0.0
          0.0065 -0.00455 0.0
          0.0052 -0.00455 0.0
          0.0039 -0.00455 0.0
          0.0026 -0.00455 0.0
          0.0013 -0.00455 0.0
          0 -0.00455 0.0
          0.039 -0.00585 0.0
          0.0377 -0.00585 0.0
          0.0364 -0.00585 0.0
          0.0351 -0.00585 0.0
          0.0338 -0.00585 0.0
          0.0325 -0.00585 0.0
          0.0312 -0.00585 0.0
          0.0299 -0.00585 0.0
          0.0286 -0.00585 0.0
          0.0273 -0.00585 0.0
          0.026 -0.00585 0.0
          0.0247 -0.00585 0.0
          0.0234 -0.00585 0.0
          0.0221 -0.00585 0.0
          0.0208 -0.00585 0.0
          0.0195 -0.00585 0.0
          0.0182 -0.00585 0.0
          0.0169 -0.00585 0.0
          0.0156 -0.00585 0.0
          0.0143 -0.00585 0.0
          0.013 -0.00585 0.0
          0.0117 -0.00585 0.0
          0.0104 -0.00585 0.0
          0.0091 -0.00585 0.0
          0.0078 -0.00585 0.0
          0.0065 -0.00585 0.0
          0.0052 -0.00585 0.0
          0.0039 -0.00585 0.0
          0.0026 -0.00585 0.0
          0.0013 -0.00585 0.0
          0 -0.00585 0.0
          0.039 -0.00715 0.0
          0.0377 -0.00715 0.0
          0.0364 -0.00715 0.0
          0.0351 -0.00715 0.0
          0.0338 -0.00715 0.0
          0.0325 -0.00715 0.0
          0.0312 -0.00715 0.0
          0.0299 -0.00715 0.0
          0.0286 -0.00715 0.0
          0.0273 -0.00715 0.0
          0.026 -0.00715 0.0
          0.0247 -0.00715 0.0
          0.0234 -0.00715 0.0
          0.0221 -0.00715 0.0
          0.0208 -0.00715 0.0
          0.0195 -0.00715 0.0
          0.0182 -0.00715 0.0
          0.0169 -0.00715 0.0
          0.0156 -0.00715 0.0
          0.0143 -0.00715 0.0
          0.013 -0.00715 0.0
          0.0117 -0.00715 0.0
          0.0104 -0.00715 0.0
          0.0091 -0.00715 0.0
          0.0078 -0.00715 0.0
          0.0065 -0.00715 0.0
          0.0052 -0.00715 0.0
          0.0039 -0.00715 0.0
          0.0026 -0.00715 0.0
          0.0013 -0.00715 0.0
          0 -0.00715 0.0
          0.039 -0.00845 0.0
          0.0377 -0.00845 0.0
          0.0364 -0.00845 0.0
          0.0351 -0.00845 0.0
          0.0338 -0.00845 0.0
          0.0325 -0.00845 0.0
          0.0312 -0.00845 0.0
          0.0299 -0.00845 0.0
          0.0286 -0.00845 0.0
          0.0273 -0.00845 0.0
          0.026 -0.00845 0.0
          0.0247 -0.00845 0.0
          0.0234 -0.00845 0.0
          0.0221 -0.00845 0.0
          0.0208 -0.00845 0.0
          0.0195 -0.00845 0.0
          0.0182 -0.00845 0.0
          0.0169 -0.00845 0.0
          0.0156 -0.00845 0.0
          0.0143 -0.00845 0.0
          0.013 -0.00845 0.0
          0.0117 -0.00845 0.0
          0.0104 -0.00845 0.0
          0.0091 -0.00845 0.0
          0.0078 -0.00845 0.0
          0.0065 -0.00845 0.0
          0.0052 -0.00845 0.0
          0.0039 -0.00845 0.0
          0.0026 -0.00845 0.0
          0.0013 -0.00845 0.0
          0 -0.00845 0.0
          0.039 -0.00975 0.0
          0.0377 -0.00975 0.0
          0.0364 -0.00975 0.0
          0.0351 -0.00975 0.0
          0.0338 -0.00975 0.0
          0.0325 -0.00975 0.0
          0.0312 -0.00975 0.0
          0.0299 -0.00975 0.0
          0.0286 -0.00975 0.0
          0.0273 -0.00975 0.0
          0.026 -0.00975 0.0
          0.0247 -0.00975 0.0
          0.0234 -0.00975 0.0
          0.0221 -0.00975 0.0
          0.0208 -0.00975 0.0
          0.0195 -0.00975 0.0
          0.0182 -0.00975 0.0
          0.0169 -0.00975 0.0
          0.0156 -0.00975 0.0
          0.0143 -0.00975 0.0
          0.013 -0.00975 0.0
          0.0117 -0.00975 0.0
          0.0104 -0.00975 0.0
          0.0091 -0.00975 0.0
          0.0078 -0.00975 0.0
          0.0065 -0.00975 0.0
          0.0052 -0.00975 0.0
          0.0039 -0.00975 0.0
          0.0026 -0.00975 0.0
          0.0013 -0.00975 0.0
          0 -0.00975 0.0
          0.039 -0.01105 0.0
          0.0377 -0.01105 0.0
          0.0364 -0.01105 0.0
          0.0351 -0.01105 0.0
          0.0338 -0.01105 0.0
          0.0325 -0.01105 0.0
          0.0312 -0.01105 0.0
          0.0299 -0.01105 0.0
          0.0286 -0.01105 0.0
          0.0273 -0.01105 0.0
          0.026 -0.01105 0.0
          0.0247 -0.01105 0.0
          0.0234 -0.01105 0.0
          0.0221 -0.01105 0.0
          0.0208 -0.01105 0.0
          0.0195 -0.01105 0.0
          0.0182 -0.01105 0.0
          0.0169 -0.01105 0.0
          0.0156 -0.01105 0.0
          0.0143 -0.01105 0.0
          0.013 -0.01105 0.0
          0.0117 -0.01105 0.0
          0.0104 -0.01105 0.0
          0.0091 -0.01105 0.0
          0.0078 -0.01105 0.0
          0.0065 -0.01105 0.0
          0.0052 -0.01105 0.0
          0.0039 -0.01105 0.0
          0.0026 -0.01105 0.0
          0.0013 -0.01105 0.0
          0 -0.01105 0.0
          0.039 -0.01235 0.0
          0.0377 -0.01235 0.0
          0.0364 -0.01235 0.0
          0.0351 -0.01235 0.0
          0.0338 -0.01235 0.0
          0.0325 -0.01235 0.0
          0.0312 -0.01235 0.0
          0.0299 -0.01235 0.0
          0.0286 -0.01235 0.0
          0.0273 -0.01235 0.0
          0.026 -0.01235 0.0
          0.0247 -0.01235 0.0
          0.0234 -0.01235 0.0
          0.0221 -0.01235 0.0
          0.0208 -0.01235 0.0
          0.0195 -0.01235 0.0
          0.0182 -0.01235 0.0
          0.0169 -0.01235 0.0
          0.0156 -0.01235 0.0
          0.0143 -0.01235 0.0
          0.013 -0.01235 0.0
          0.0117 -0.01235 0.0
          0.0104 -0.01235 0.0
          0.0091 -0.01235 0.0
          0.0078 -0.01235 0.0
          0.0065 -0.01235 0.0
          0.0052 -0.01235 0.0
          0.0039 -0.01235 0.0
          0.0026 -0.01235 0.0
          0.0013 -0.01235 0.0
          0 -0.01235 0.0
          0.039 -0.01365 0.0
          0.0377 -0.01365 0.0
          0.0364 -0.01365 0.0
          0.0351 -0.01365 0.0
          0.0338 -0.01365 0.0
          0.0325 -0.01365 0.0
          0.0312 -0.01365 0.0
          0.0299 -0.01365 0.0
          0.0286 -0.01365 0.0
          0.0273 -0.01365 0.0
          0.026 -0.01365 0.0
          0.0247 -0.01365 0.0
          0.0234 -0.01365 0.0
          0.0221 -0.01365 0.0
          0.0208 -0.01365 0.0
          0.0195 -0.01365 0.0
          0.0182 -0.01365 0.0
          0.0169 -0.01365 0.0
          0.0156 -0.01365 0.0
          0.0143 -0.01365 0.0
          0.013 -0.01365 0.0
          0.0117 -0.01365 0.0
          0.0104 -0.01365 0.0
          0.0091 -0.01365 0.0
          0.0078 -0.01365 0.0
          0.0065 -0.01365 0.0
          0.0052 -0.01365 0.0
          0.0039 -0.01365 0.0
          0.0026 -0.01365 0.0
          0.0013 -0.01365 0.0
          0 -0.01365 0.0
          0.039 -0.01495 0.0
          0.0377 -0.01495 0.0
          0.0364 -0.01495 0.0
          0.0351 -0.01495 0.0
          0.0338 -0.01495 0.0
          0.0325 -0.01495 0.0
          0.0312 -0.01495 0.0
          0.0299 -0.01495 0.0
          0.0286 -0.01495 0.0
          0.0273 -0.01495 0.0
          0.026 -0.01495 0.0
          0.0247 -0.01495 0.0
          0.0234 -0.01495 0.0