<?xml version="1.0"?>
<VTKFile type="UnstructuredGrid" version="0.1" byte_order="LittleEndian">
  <UnstructuredGrid>
    <Piece NumberOfPoints="961" NumberOfCells="900">
      <PointData Scalars="Temperature">
        <DataArray type="Float32" Name="Temperature" format="ascii">
          21.0003
          21.0142
          21.0288
          21.0437
          21.0565
          21.0655
          21.0703
          21.0737
          21.0784
          21.086
          21.0944
          21.1007
          21.1027
          21.1017
          21.1005
          21.1017
          21.1049
          21.1073
          21.1059
          21.0999
          21.0917
          21.0845
          21.0802
          21.0772
          21.0725
          21.0635
          21.0509
          21.0365
          21.023
          21.011
          21.0003
          21.0138
          21.5739
          22.1853
          22.8108
          23.3654
          23.7292
          23.9124
          24.0156
          24.2035
          24.5245
          24.9065
          25.1804
          25.259
          25.1835
          25.1105
          25.1615
          25.324
          25.4545
          25.4006
          25.1339
          24.7595
          24.4535
          24.2856
          24.198
          24.0205
          23.6553
          23.1024
          22.4948
          21.9277
          21.4469
          21.0107
          21.0262
          22.0936
          23.2759
          24.736
          25.9401
          26.7291
          26.9102
          26.9327
          27.1727
          27.9781
          28.9219
          29.6281
          29.7058
          29.3471
          29.0136
          29.1424
          29.6641
          30.1345
          30.0812
          29.3725
          28.4325
          27.6643
          27.476
          27.4949
          27.3193
          26.5149
          25.3031
          23.8648
          22.7676
          21.8508
          21.0204
          21.0366
          22.5282
          24.1975
          26.2647
          30.1398
          30.1403
          30.1404
          30.1403
          29.421
          30.6144
          34.5356
          34.536
          34.5361
          34.5358
          31.9756
          32.1671
          35.2428
          35.2432
          35.2432
          35.2427
          31.2346
          30.0959
          31.0496
          31.0497
          31.0496
          31.0491
          27.0476
          25.0234
          23.4776
          22.1956
          21.0287
          21.0443
          22.8476
          24.8273
          27.2619
          30.1605
          30.1606
          30.1608
          30.1608
          30.7624
          32.2244
          34.5607
          34.5609
          34.5609
          34.5609
          33.7572
          33.9923
          35.2688
          35.2689
          35.2689
          35.2687
          32.9429
          31.5479
          31.0715
          31.0714
          31.0713
          31.0711
          28.1911
          25.8344
          24.0161
          22.4646
          21.0352
          21.0495
          23.0514
          25.1941
          27.5775
          30.2211
          30.2213
          30.2214
          30.2215
          31.2777
          32.7441
          34.6346
          34.6347
          34.6348
          34.6348
          34.3838
          34.6197
          35.3453
          35.3453
          35.3453
          35.3452
          33.4979
          32.099
          31.1362
          31.1361
          31.136
          31.1359
          28.5827
          26.3308
          24.3828
          22.6577
          21.04
          21.0526
          23.1734
          25.3862
          27.7586
          30.3219
          30.3221
          30.3222
          30.3223
          31.5253
          32.999
          34.7574
          34.7575
          34.7576
          34.7576
          34.6791
          34.9165
          35.4722
          35.4723
          35.4722
          35.4721
          33.7679
          32.3625
          31.2438
          31.2437
          31.2436
          31.2435
          28.8163
          26.6133
          24.6214
          22.7897
          21.0433
          21.0546
          23.2521
          25.5179
          27.9079
          30.4631
          30.4632
          30.4634
          30.4634
          31.7195
          33.2035
          34.9291
          34.9292
          34.9292
          34.9293
          34.9058
          35.1451
          35.6498
          35.6498
          35.6498
          35.6497
          33.9826
          32.5682
          31.3944
          31.3944
          31.3942
          31.3941
          29.0061
          26.8119
          24.785
          22.8821
          21.0456
          21.0563
          23.3167
          25.6348
          28.0623
          30.6446
          30.6448
          30.6449
          30.645
          31.927
          33.4241
          35.1497
          35.1498
          35.1498
          35.1499
          35.1453
          35.3871
          35.8779
          35.8779
          35.8779
          35.8778
          34.2133
          32.7874
          31.5881
          31.5881
          31.5879
          31.5878
          29.195
          26.9823
          24.9159
          22.9541
          21.0474
          21.0578
          23.3808
          25.757
          28.2365
          30.8668
          30.8669
          30.867
          30.8671
          32.1686
          33.6815
          35.4192
          35.4193
          35.4194
          35.4194
          35.423
          35.6678
          36.1566
          36.1566
          36.1565
          36.1565
          34.4822
          33.0422
          31.825
          31.825
          31.8248
          31.8247
          29.4011
          27.1515
          25.038
          23.019
          21.049
          21.0596
          23.4506
          25.8931
          28.4366
          31.1296
          31.1298
          31.1299
          31.13
          32.4507
          33.9823
          35.7378
          35.7379
          35.7379
          35.7379
          35.7466
          35.995
          36.4858
          36.4858
          36.4858
          36.4857
          34.7961
          33.3397
          32.1053
          32.1052
          32.1051
          32.105
          29.6334
          27.333
          25.1639
          23.0843
          21.0506
          21.0615
          23.5287
          26.0469
          28.6653
          31.4334
          31.4335
          31.4337
          31.4337
          32.7754
          34.3283
          36.1053
          36.1054
          36.1054
          36.1054
          36.1186
          36.3711
          36.8656
          36.8657
          36.8656
          36.8655
          35.1572
          33.682
          32.4291
          32.429
          32.4289
          32.4288
          29.8961
          27.5337
          25.3004
          23.1542
          21.0524
          21.0636
          23.6164
          26.22
          28.9241
          31.7783
          31.7785
          31.7786
          31.7787
          33.1435
          34.7205
          36.5218
          36.5219
          36.5219
          36.5219
          36.5398
          36.797
          37.296
          37.296
          37.296
          37.2959
          35.5663
          34.0701
          32.7967
          32.7966
          32.7964
          32.7963
          30.1916
          27.7571
          25.4509
          23.2307
          21.0542
          21.066
          23.7142
          26.4134
          29.2135
          32.1646
          32.1648
          32.1649
          32.165
          33.5555
          35.159
          36.9873
          36.9874
          36.9875
          36.9875
          37.0105
          37.2728
          37.777
          37.777
          37.777
          37.7769
          36.0236
          34.5041
          33.2082
          33.2081
          33.2079
          33.2078
          30.5212
          28.0053
          25.6174
          23.3152
          21.0563
          21.0686
          23.8224
          26.6275
          29.5341
          32.5927
          32.5928
          32.593
          32.5931
          34.0115
          35.644
          37.502
          37.5021
          37.5021
          37.5021
          37.5307
          37.7987
          38.3085
          38.3085
          38.3085
          38.3084
          36.5293
          34.9844
          33.6639
          33.6638
          33.6636
          33.6635
          30.8859
          28.2796
          25.8013
          23.4084
          21.0586
          21.0715
          23.9414
          26.8628
          29.8862
          33.0627
          33.0629
          33.063
          33.0631
          34.5119
          36.1757
          38.0657
          38.0658
          38.0658
          38.0659
          38.1005
          38.3746
          38.8906
          38.8906
          38.8905
          38.8905
          37.0835
          35.5111
          34.164
          34.1639
          34.1638
          34.1636
          31.2866
          28.5812
          26.0037
          23.511
          21.0611
          21.0747
          24.0713
          27.1196
          30.2703
          33.575
          33.5752
          33.5753
          33.5755
          35.0567
          36.7543
          38.6785
          38.6786
          38.6787
          38.6787
          38.7199
          39.0007
          39.5232
          39.5232
          39.5231
          39.523
          37.6863
          36.0845
          34.7089
          34.7088
          34.7086
          34.7085
          31.7242
          28.9117
          26.226
          23.624
          21.0638
          21.0782
          24.2128
          27.3988
          30.6872
          34.13
          34.1302
          34.1303
          34.1304
          35.6464
          37.3798
          39.3405
          39.3406
          39.3407
          39.3407
          39.389
          39.6768
          40.2063
          40.2063
          40.2062
          40.2061
          38.3377
          36.7047
          35.2988
          35.2987
          35.2985
          35.2983
          32.2005
          29.2733
          26.4706
          23.7487
          21.0669
          21.0818
          24.3669
          27.7019
          31.1379
          34.7279
          34.7281
          34.7283
          34.7284
          36.2811
          38.0523
          40.0516
          40.0517
          40.0518
          40.0518
          40.1078
          40.4031
          40.9398
          40.9398
          40.9398
          40.9396
          39.038
          37.372
          35.934
          35.9339
          35.9337
          35.9335
          32.7181
          29.6705
          26.7418
          23.8879
          21.0702
          21.0863
          24.5358
          28.0323
          31.6249
          35.3692
          35.3694
          35.3697
          35.3698
          36.9611
          38.7721
          40.8118
          40.8119
          40.8121
          40.8121
          40.8766
          41.1798
          41.7238
          41.7238
          41.7237
          41.7236
          39.7871
          38.0866
          36.6149
          36.6147
          36.6145
          36.6143
          33.282
          30.1112
          27.0476
          24.0466
          21.0745
          21.0895
          24.7253
          28.3969
          32.1535
          36.0541
          36.0545
          36.0548
          36.055
          37.6866
          39.5392
          41.621
          41.6212
          41.6216
          41.6217
          41.6958
          42.0073
          42.5583
          42.5582
          42.558
          42.5578
          40.5853
          38.8488
          37.3417
          37.3415
          37.3412
          37.3409
          33.9018
          30.6108
          27.4034
          24.235
          21.0776
          21.1009
          24.9446
          28.8131
          32.7351
          36.7829
          36.7834
          36.7842
          36.7846
          38.4583
          40.3537
          42.4789
          42.4795
          42.4804
          42.4809
          42.5672
          42.8874
          43.4433
          43.443
          43.4424
          43.442
          41.4329
          39.6595
          38.1152
          38.1147
          38.1139
          38.1134
          34.595
          31.198
          27.8398
          24.4697
          21.0898
          21.0844
          25.232
          29.3157
          33.3968
          37.5553
          37.5565
          37.5585
          37.5596
          39.2772
          41.2159
          43.3846
          43.3861
          43.389
          43.3904
          43.4955
          43.8245
          44.3794
          44.3785
          44.3765
          44.3755
          42.3311
          40.5204
          38.9361
          38.935
          38.9327
          38.9315
          35.3935
          31.9288
          28.4121
          24.7999
          21.0729
          21.1893
          25.6095
          30.0044
          34.1943
          38.3697
          38.373
          38.3792
          38.3824
          40.1465
          42.1263
          44.3352
          44.3398
          44.3488
          44.3533
          44.4942
          44.8315
          45.3684
          45.3654
          45.3594
          45.3563
          43.2831
          41.437
          39.8071
          39.8036
          39.7968
          39.7933
          36.3545
          32.9028
          29.2498
          25.2601
          21.1859
          20.8288
          26.4044
          31.0333
          35.2681
          39.2203
          39.23
          39.2498
          39.2594
          41.0774
          43.0881
          45.3217
          45.3357
          45.3644
          45.3783
          45.5999
          45.9438
          46.4163
          46.407
          46.3877
          46.3783
          44.2988
          42.426
          40.7351
          40.7246
          40.703
          40.6924
          37.5599
          34.3192
          30.5417
          26.208
          20.805
          22.3859
          27.3653
          33.0566
          36.8122
          40.0863
          40.1195
          40.1794
          40.2125
          42.106
          44.116
          46.313
          46.3611
          46.4484
          46.4965
          46.91
          47.2543
          47.5437
          47.5115
          47.4528
          47.4204
          45.4103
          43.5378
          41.7439
          41.7076
          41.6419
          41.6057
          39.0904
          36.4297
          32.9993
          27.3795
          22.4648
          16.3913
          32.4933
          36.6167
          38.9713
          40.9179
          40.9962
          41.2137
          41.292
          43.3874
          45.2379
          47.2351
          47.3504
          47.6663
          47.7816
          48.6856
          49.001
          48.8001
          48.7229
          48.5104
          48.4332
          46.6895
          44.9574
          42.8886
          42.8026
          42.5644
          42.4784
          40.9761
          39.4054
          37.1828
          33.0221
          16.0931
          41.4305
          41.5196
          41.6211
          41.7321
          41.664
          41.7505
          42.1774
          43.121
          45.2087
          46.6324
          47.7445
          48.2737
          48.9075
          49.8575
          51.4057
          51.6378
          50.6336
          49.9514
          49.528
          49.2116
          48.3884
          47.0154
          44.8353
          43.8263
          43.357
          43.2393
          43.2564
          43.0941
          42.9454
          42.8276
          42.731
          41.4598
          41.5294
          41.6357
          41.7644
          41.9563
          42.2967
          42.9218
          43.9675
          45.301
          46.7611
          48.0632
          49.1937
          50.1747
          51.1081
          51.8051
          52.0359
          51.765
          51.2182
          50.5815
          49.7431
          48.6065
          47.1642
          45.7526
          44.6231
          43.9316
          43.5347
          43.2896
          43.1077
          42.9515
          42.8351
          42.7604
          41.4957
          41.5502
          41.6627
          41.8465
          42.1372
          42.5993
          43.3074
          44.296
          45.5483
          47.016
          48.7186
          50.3105
          51.5028
          52.3896
          52.9683
          53.1846
          53.0346
          52.5717
          51.8275
          50.748
          49.2009
          47.5274
          46.1335
          45.0415
          44.2525
          43.7234
          43.3731
          43.1327
          42.9634
          42.8512
          42.7953
          41.5214
          41.5595
          41.6771
          41.8787
          42.2
          42.6959
          43.4203
          44.4028
          45.6406
          47.1446
          49.0943
          50.9559
          52.2178
          53.1097
          53.6685
          53.8834
          53.7546
          53.3025
          52.5289
          51.3651
          49.5694
          47.6761
          46.2626
          45.1659
          44.3556
          43.7893
          43.4061
          43.1461
          42.9692
          42.8581
          42.8209
        </DataArray>
      </PointData>
      <CellData>
      </CellData>
      <Points>
        <DataArray type="Float32" NumberOfComponents="3" format="ascii">
          0.1 0.005 0.0
          0.0966667 0.005 0.0
          0.0933333 0.005 0.0
          0.09 0.005 0.0
          0.0866667 0.005 0.0
          0.0833333 0.005 0.0
          0.08 0.005 0.0
          0.0766667 0.005 0.0
          0.0733333 0.005 0.0
          0.07 0.005 0.0
          0.0666667 0.005 0.0
          0.0633333 0.005 0.0
          0.06 0.005 0.0
          0.0566667 0.005 0.0
          0.0533333 0.005 0.0
          0.05 0.005 0.0
          0.0466667 0.005 0.0
          0.0433333 0.005 0.0
          0.04 0.005 0.0
          0.0366667 0.005 0.0
          0.0333333 0.005 0.0
          0.03 0.005 0.0
          0.0266667 0.005 0.0
          0.0233333 0.005 0.0
          0.02 0.005 0.0
          0.0166667 0.005 0.0
          0.0133333 0.005 0.0
          0.01 0.005 0.0
          0.00666667 0.005 0.0
          0.00333333 0.005 0.0
          0 0.005 0.0
          0.1 0.00166667 0.0
          0.0966667 0.00166667 0.0
          0.0933333 0.00166667 0.0
          0.09 0.00166667 0.0
          0.0866667 0.00166667 0.0
          0.0833333 0.00166667 0.0
          0.08 0.00166667 0.0
          0.0766667 0.00166667 0.0
          0.0733333 0.00166667 0.0
          0.07 0.00166667 0.0
          0.0666667 0.00166667 0.0
          0.0633333 0.00166667 0.0
          0.06 0.00166667 0.0
          0.0566667 0.00166667 0.0
          0.0533333 0.00166667 0.0
          0.05 0.00166667 0.0
          0.0466667 0.00166667 0.0
          0.0433333 0.00166667 0.0
          0.04 0.00166667 0.0
          0.0366667 0.00166667 0.0
          0.0333333 0.00166667 0.0
          0.03 0.00166667 0.0
          0.0266667 0.00166667 0.0
          0.0233333 0.00166667 0.0
          0.02 0.00166667 0.0
          0.0166667 0.00166667 0.0
          0.0133333 0.00166667 0.0
          0.01 0.00166667 0.0
          0.00666667 0.00166667 0.0
          0.00333333 0.00166667 0.0
          0 0.00166667 0.0
          0.1 -0.00166667 0.0
          0.0966667 -0.00166667 0.0
          0.0933333 -0.00166667 0.0
          0.09 -0.00166667 0.0
          0.0866667 -0.00166667 0.0
          0.0833333 -0.00166667 0.0
          0.08 -0.00166667 0.0
          0.0766667 -0.00166667 0.0
          0.0733333 -0.00166667 0.0
          0.07 -0.00166667 0.0
          0.0666667 -0.00166667 0.0
          0.0633333 -0.00166667 0.0
          0.06 -0.00166667 0.0
          0.0566667 -0.00166667 0.0
          0.0533333 -0.00166667 0.0
          0.05 -0.00166667 0.0
          0.0466667 -0.00166667 0.0
          0.0433333 -0.00166667 0.0
          0.04 -0.00166667 0.0
          0.0366667 -0.00166667 0.0
          0.0333333 -0.00166667 0.0
          0.03 -0.00166667 0.0
          0.0266667 -0.00166667 0.0
          0.0233333 -0.00166667 0.0
          0.02 -0.00166667 0.0
          0.0166667 -0.00166667 0.0
          0.0133333 -0.00166667 0.0
          0.01 -0.00166667 0.0
          0.00666667 -0.00166667 0.0
          0.00333333 -0.00166667 0.0
          0 -0.00166667 0.0
          0.1 -0.005 0.0
          0.0966667 -0.005 0.0
          0.0933333 -0.005 0.0
          0.09 -0.005 0.0
          0.0866667 -0.005 0.0
          0.0833333 -0.005 0.0
          0.08 -0.005 0.0
          0.0766667 -0.005 0.0
          0.0733333 -0.005 0.0
          0.07 -0.005 0.0
          0.0666667 -0.005 0.0
          0.0633333 -0.005 0.0
          0.06 -0.005 0.0
          0.0566667 -0.005 0.0
          0.0533333 -0.005 0.0
          0.05 -0.005 0.0
          0.0466667 -0.005 0.0
          0.0433333 -0.005 0.0
          0.04 -0.005 0.0
          0.0366667 -0.005 0.0
          0.0333333 -0.005 0.0
          0.03 -0.005 0.0
          0.0266667 -0.005 0.0
          0.0233333 -0.005 0.0
          0.02 -0.005 0.0
          0.0166667 -0.005 0.0
          0.0133333 -0.005 0.0
          0.01 -0.005 0.0
          0.00666667 -0.005 0.0
          0.00333333 -0.005 0.0
          0 -0.005 0.0
          0.1 -0.00833333 0.0
          0.0966667 -0.00833333 0.0
          0.0933333 -0.00833333 0.0
          0.09 -0.00833333 0.0
          0.0866667 -0.00833333 0.0
          0.0833333 -0.00833333 0.0
          0.08 -0.00833333 0.0
          0.0766667 -0.00833333 0.0
          0.0733333 -0.00833333 0.0
          0.07 -0.00833333 0.0
          0.0666667 -0.00833333 0.0
          0.0633333 -0.00833333 0.0
          0.06 -0.00833333 0.0
          0.0566667 -0.00833333 0.0
          0.0533333 -0.00833333 0.0
          0.05 -0.00833333 0.0
          0.0466667 -0.00833333 0.0
          0.0433333 -0.00833333 0.0
          0.04 -0.00833333 0.0
          0.0366667 -0.00833333 0.0
          0.0333333 -0.00833333 0.0
          0.03 -0.00833333 0.0
          0.0266667 -0.00833333 0.0
          0.0233333 -0.00833333 0.0
          0.02 -0.00833333 0.0
          0.0166667 -0.00833333 0.0
          0.0133333 -0.00833333 0.0
          0.01 -0.00833333 0.0
          0.00666667 -0.00833333 0.0
          0.00333333 -0.00833333 0.0
          0 -0.00833333 0.0
          0.1 -0.0116667 0.0
          0.0966667 -0.0116667 0.0
          0.0933333 -0.0116667 0.0
          0.09 -0.0116667 0.0
          0.0866667 -0.0116667 0.0
          0.0833333 -0.0116667 0.0
          0.08 -0.0116667 0.0
          0.0766667 -0.0116667 0.0
          0.0733333 -0.0116667 0.0
          0.07 -0.0116667 0.0
          0.0666667 -0.0116667 0.0
          0.0633333 -0.0116667 0.0
          0.06 -0.0116667 0.0
          0.0566667 -0.0116667 0.0
          0.0533333 -0.0116667 0.0
          0.05 -0.0116667 0.0
          0.0466667 -0.0116667 0.0
          0.0433333 -0.0116667 0.0
          0.04 -0.0116667 0.0
          0.0366667 -0.0116667 0.0
          0.0333333 -0.0116667 0.0
          0.03 -0.0116667 0.0
          0.0266667 -0.0116667 0.0
          0.0233333 -0.0116667 0.0
          0.02 -0.0116667 0.0
          0.0166667 -0.0116667 0.0
          0.0133333 -0.0116667 0.0
          0.01 -0.0116667 0.0
          0.00666667 -0.0116667 0.0
          0.00333333 -0.0116667 0.0
          0 -0.0116667 0.0
          0.1 -0.015 0.0
          0.0966667 -0.015 0.0
          0.0933333 -0.015 0.0
          0.09 -0.015 0.0
          0.0866667 -0.015 0.0
          0.0833333 -0.015 0.0
          0.08 -0.015 0.0
          0.0766667 -0.015 0.0
          0.0733333 -0.015 0.0
          0.07 -0.015 0.0
          0.0666667 -0.015 0.0
          0.0633333 -0.015 0.0
          0.06 -0.015 0.0
          0.0566667 -0.015 0.0
          0.0533333 -0.015 0.0
          0.05 -0.015 0.0
          0.0466667 -0.015 0.0
          0.0433333 -0.015 0.0
          0.04 -0.015 0.0
          0.0366667 -0.015 0.0
          0.0333333 -0.015 0.0
          0.03 -0.015 0.0
          0.0266667 -0.015 0.0
          0.0233333 -0.015 0.0
          0.02 -0.015 0.0
          0.0166667 -0.015 0.0
          0.0133333 -0.015 0.0
          0.01 -0.015 0.0
          0.00666667 -0.015 0.0
          0.00333333 -0.015 0.0
          0 -0.015 0.0
          0.1 -0.0183333 0.0
          0.0966667 -0.0183333 0.0
          0.0933333 -0.0183333 0.0
          0.09 -0.0183333 0.0
          0.0866667 -0.0183333 0.0
          0.0833333 -0.0183333 0.0
          0.08 -0.0183333 0.0
          0.0766667 -0.0183333 0.0
          0.0733333 -0.0183333 0.0
          0.07 -0.0183333 0.0
          0.0666667 -0.0183333 0.0
          0.0633333 -0.0183333 0.0
          0.06 -0.0183333 0.0
          0.0566667 -0.0183333 0.0
          0.0533333 -0.0183333 0.0
          0.05 -0.0183333 0.0
          0.0466667 -0.0183333 0.0
          0.0433333 -0.0183333 0.0
          0.04 -0.0183333 0.0
          0.0366667 -0.0183333 0.0
          0.0333333 -0.0183333 0.0
          0.03 -0.0183333 0.0
          0.0266667 -0.0183333 0.0
          0.0233333 -0.0183333 0.0
          0.02 -0.0183333 0.0
          0.0166667 -0.0183333 0.0
          0.0133333 -0.0183333 0.0
          0.01 -0.0183333 0.0
          0.00666667 -0.0183333 0.0
          0.00333333 -0.0183333 0.0
          0 -0.0183333 0.0
          0.1 -0.0216667 0.0
          0.0966667 -0.0216667 0.0
          0.0933333 -0.0216667 0.0
          0.09 -0.0216667 0.0
          0.0866667 -0.0216667 0.0
          0.0833333 -0.0216667 0.0
          0.08 -0.0216667 0.0
          0.0766667 -0.0216667 0.0
          0.0733333 -0.0216667 0.0
          0.07 -0.0216667 0.0
          0.0666667 -0.0216667 0.0
          0.0633333 -0.0216667 0.0
          0.06 -0.0216667 0.0
          0.0566667 -0.0216667 0.0
          0.0533333 -0.0216667 0.0
          0.05 -0.0216667 0.0
          0.0466667 -0.0216667 0.0
          0.0433333 -0.0216667 0.0
          0.04 -0.0216667 0.0
          0.0366667 -0.0216667 0.0
          0.0333333 -0.0216667 0.0
          0.03 -0.0216667 0.0
          0.0266667 -0.0216667 0.0
          0.0233333 -0.0216667 0.0
          0.02 -0.0216667 0.0
          0.0166667 -0.0216667 0.0
          0.0133333 -0.0216667 0.0
          0.01 -0.0216667 0.0
          0.00666667 -0.0216667 0.0
          0.00333333 -0.0216667 0.0
          0 -0.0216667 0.0
          0.1 -0.025 0.0
          0.0966667 -0.025 0.0
          0.0933333 -0.025 0.0
          0.09 -0.025 0.0
          0.0866667 -0.025 0.0
          0.0833333 -0.025 0.0
          0.08 -0.025 0.0
          0.0766667 -0.025 0.0
          0.0733333 -0.025 0.0
          0.07 -0.025 0.0
          0.0666667 -0.025 0.0
          0.0633333 -0.025 0.0
          0.06 -0.025 0.0
          0.0566667 -0.025 0.0
          0.0533333 -0.025 0.0
          0.05 -0.025 0.0
          0.0466667 -0.025 0.0
          0.0433333 -0.025 0.0
          0.04 -0.025 0.0
          0.0366667 -0.025 0.0
          0.0333333 -0.025 0.0
          0.03 -0.025 0.0
          0.0266667 -0.025 0.0
          0.0233333 -0.025 0.0
          0.02 -0.025 0.0
          0.0166667 -0.025 0.0
          0.0133333 -0.025 0.0
          0.01 -0.025 0.0
          0.00666667 -0.025 0.0
          0.00333333 -0.025 0.0
          0 -0.025 0.0
          0.1 -0.0283333 0.0
          0.0966667 -0.0283333 0.0
          0.0933333 -0.0283333 0.0
          0.09 -0.0283333 0.0
          0.0866667 -0.0283333 0.0
          0.0833333 -0.0283333 0.0
          0.08 -0.0283333 0.0
          0.0766667 -0.0283333 0.0
          0.0733333 -0.0283333 0.0
          0.07 -0.0283333 0.0
          0.0666667 -0.0283333 0.0
          0.0633333 -0.0283333 0.0
          0.06 -0.0283333 0.0
          0.0566667 -0.0283333 0.0
          0.0533333 -0.0283333 0.0
          0.05 -0.0283333 0.0
          0.0466667 -0.0283333 0.0
          0.0433333 -0.0283333 0.0
          0.04 -0.0283333 0.0
          0.0366667 -0.0283333 0.0
          0.0333333 -0.0283333 0.0
          0.03 -0.0283333 0.0
          0.0266667 -0.0283333 0.0
          0.0233333 -0.0283333 0.0
          0.02 -0.0283333 0.0
          0.0166667 -0.0283333 0.0
          0.0133333 -0.0283333 0.0
          0.01 -0.0283333 0.0
          0.00666667 -0.0283333 0.0
          0.00333333 -0.0283333 0.0
          0 -0.0283333 0.0
          0.1 -0.0316667 0.0
          0.0966667 -0.0316667 0.0
          0.0933333 -0.0316667 0.0
          0.09 -0.0316667 0.0
          0.0866667 -0.0316667 0.0
          0.0833333 -0.0316667 0.0
          0.08 -0.0316667 0.0
          0.0766667 -0.0316667 0.0
          0.0733333 -0.0316667 0.0
          0.07 -0.0316667 0.0
          0.0666667 -0.0316667 0.0
          0.0633333 -0.0316667 0.0
          0.06 -0.0316667 0.0
          0.0566667 -0.0316667 0.0
          0.0533333 -0.0316667 0.0
          0.05 -0.0316667 0.0
          0.0466667 -0.0316667 0.0
          0.0433333 -0.0316667 0.0
          0.04 -0.0316667 0.0
          0.0366667 -0.0316667 0.0
          0.0333333 -0.0316667 0.0
          0.03 -0.0316667 0.0
          0.0266667 -0.0316667 0.0
          0.0233333 -0.0316667 0.0
          0.02 -0.0316667 0.0
          0.0166667 -0.0316667 0.0
          0.0133333 -0.0316667 0.0
          0.01 -0.0316667 0.0
          0.00666667 -0.0316667 0.0
          0.00333333 -0.0316667 0.0
          0 -0.0316667 0.0
          0.1 -0.035 0.0
          0.0966667 -0.035 0.0
          0.0933333 -0.035 0.0
          0.09 -0.035 0.0
          0.0866667 -0.035 0.0
          0.0833333 -0.035 0.0
          0.08 -0.035 0.0
          0.0766667 -0.035 0.0
          0.0733333 -0.035 0.0
          0.07 -0.035 0.0
          0.0666667 -0.035 0.0
          0.0633333 -0.035 0.0
          0.06 -0.035 0.0
          0.0566667 -0.035 0.0
          0.0533333 -0.035 0.0
          0.05 -0.035 0.0