<?xml version="1.0"?>
<VTKFile type="UnstructuredGrid" version="0.1" byte_order="LittleEndian">
  <UnstructuredGrid>
    <Piece NumberOfPoints="961" NumberOfCells="900">
      <PointData Scalars="Temperature">
        <DataArray type="Float32" Name="Temperature" format="ascii">
          26.3489
          26.3489
          26.3489
          26.3489
          26.3489
          26.3489
          26.3489
          26.3489
          26.3489
          26.3489
          26.3489
          26.3489
          26.3489
          26.3489
          26.3489
          26.3489
          26.3489
          26.3489
          26.3489
          26.3489
          26.3489
          26.3489
          26.3489
          26.3489
          26.3489
          26.3489
          26.3489
          26.3489
          26.3489
          26.3489
          26.3489
          26.3489
          26.3489
          26.3489
          26.3489
          26.3489
          26.3489
          26.3489
          26.3489
          26.3489
          26.3489
          26.3489
          26.3489
          26.3489
          26.3489
          26.3489
          26.3489
          26.3489
          26.3489
          26.3489
          26.3489
          26.3489
          26.3489
          26.3489
          26.3489
          26.3489
          26.3489
          26.3489
          26.3489
          26.3489
          26.3489
          26.3489
          26.3489
          26.3489
          26.3489
          26.3489
          26.3489
          26.3489
          26.3489
          26.3489
          26.3489
          26.3489
          26.3489
          26.3489
          26.3489
          26.3489
          26.3489
          26.3489
          26.3489
          26.3489
          26.3489
          26.3489
          26.3489
          26.3489
          26.3489
          26.3489
          26.3489
          26.3489
          26.3489
          26.3489
          26.3489
          26.3489
          26.3489
          26.3489
          26.3489
          26.3489
          26.3489
          31.2998
          31.3003
          31.3004
          31.3002
          26.3489
          26.3489
          31.5003
          31.5006
          31.5006
          31.5003
          26.3489
          26.3489
          31.5343
          31.5345
          31.5345
          31.5342
          26.3489
          26.3489
          31.3588
          31.359
          31.3589
          31.3585
          26.3489
          26.3489
          26.3489
          26.3489
          26.3489
          26.3489
          26.3489
          26.3489
          26.3489
          31.3009
          31.3011
          31.3012
          31.3012
          26.3489
          26.3489
          31.5013
          31.5013
          31.5014
          31.5013
          26.3489
          26.3489
          31.5352
          31.5353
          31.5353
          31.5352
          26.3489
          26.3489
          31.3598
          31.3598
          31.3597
          31.3596
          26.3489
          26.3489
          26.3489
          26.3489
          26.3489
          26.3489
          26.3489
          26.3489
          26.3489
          31.3028
          31.303
          31.3031
          31.3031
          26.3489
          26.3489
          31.5031
          31.5032
          31.5032
          31.5031
          26.3489
          26.3489
          31.5371
          31.5371
          31.5371
          31.5371
          26.3489
          26.3489
          31.3617
          31.3617
          31.3616
          31.3615
          26.3489
          26.3489
          26.3489
          26.3489
          26.3489
          26.3489
          26.3489
          26.3489
          26.3489
          31.3058
          31.3059
          31.306
          31.306
          26.3489
          26.3489
          31.5059
          31.506
          31.506
          31.5059
          26.3489
          26.3489
          31.5399
          31.5399
          31.5399
          31.5399
          26.3489
          26.3489
          31.3646
          31.3646
          31.3645
          31.3644
          26.3489
          26.3489
          26.3489
          26.3489
          26.3489
          26.3489
          26.3489
          26.3489
          26.3489
          31.3097
          31.3098
          31.3099
          31.3099
          26.3489
          26.3489
          31.5097
          31.5097
          31.5097
          31.5097
          26.3489
          26.3489
          31.5436
          31.5436
          31.5436
          31.5436
          26.3489
          26.3489
          31.3685
          31.3685
          31.3684
          31.3683
          26.3489
          26.3489
          26.3489
          26.3489
          26.3489
          26.3489
          26.3489
          26.3489
          26.3489
          31.3146
          31.3147
          31.3148
          31.3148
          26.3489
          26.3489
          31.5144
          31.5144
          31.5144
          31.5144
          26.3489
          26.3489
          31.5483
          31.5483
          31.5483
          31.5483
          26.3489
          26.3489
          31.3733
          31.3733
          31.3733
          31.3732
          26.3489
          26.3489
          26.3489
          26.3489
          26.3489
          26.3489
          26.3489
          26.3489
          26.3489
          31.3205
          31.3206
          31.3207
          31.3207
          26.3489
          26.3489
          31.52
          31.5201
          31.5201
          31.5201
          26.3489
          26.3489
          31.554
          31.554
          31.554
          31.554
          26.3489
          26.3489
          31.3792
          31.3792
          31.3791
          31.379
          26.3489
          26.3489
          26.3489
          26.3489
          26.3489
          26.3489
          26.3489
          26.3489
          26.3489
          31.3274
          31.3275
          31.3276
          31.3276
          26.3489
          26.3489
          31.5267
          31.5267
          31.5267
          31.5267
          26.3489
          26.3489
          31.5606
          31.5606
          31.5606
          31.5606
          26.3489
          26.3489
          31.3861
          31.3861
          31.386
          31.3859
          26.3489
          26.3489
          26.3489
          26.3489
          26.3489
          26.3489
          26.3489
          26.3489
          26.3489
          31.3353
          31.3354
          31.3355
          31.3355
          26.3489
          26.3489
          31.5342
          31.5343
          31.5343
          31.5342
          26.3489
          26.3489
          31.5682
          31.5682
          31.5682
          31.5682
          26.3489
          26.3489
          31.3939
          31.3939
          31.3938
          31.3937
          26.3489
          26.3489
          26.3489
          26.3489
          26.3489
          26.3489
          26.3489
          26.3489
          26.3489
          31.3442
          31.3443
          31.3444
          31.3444
          26.3489
          26.3489
          31.5428
          31.5428
          31.5428
          31.5428
          26.3489
          26.3489
          31.5767
          31.5768
          31.5767
          31.5767
          26.3489
          26.3489
          31.4027
          31.4027
          31.4027
          31.4026
          26.3489
          26.3489
          26.3489
          26.3489
          26.3489
          26.3489
          26.3489
          26.3489
          26.3489
          31.3541
          31.3542
          31.3543
          31.3543
          26.3489
          26.3489
          31.5523
          31.5523
          31.5523
          31.5523
          26.3489
          26.3489
          31.5862
          31.5862
          31.5862
          31.5862
          26.3489
          26.3489
          31.4126
          31.4125
          31.4125
          31.4124
          26.3489
          26.3489
          26.3489
          26.3489
          26.3489
          26.3489
          26.3489
          26.3489
          26.3489
          31.365
          31.3651
          31.3652
          31.3652
          26.3489
          26.3489
          31.5627
          31.5627
          31.5627
          31.5627
          26.3489
          26.3489
          31.5967
          31.5967
          31.5967
          31.5967
          26.3489
          26.3489
          31.4234
          31.4234
          31.4233
          31.4232
          26.3489
          26.3489
          26.3489
          26.3489
          26.3489
          26.3489
          26.3489
          26.3489
          26.3489
          31.3768
          31.377
          31.3771
          31.3771
          26.3489
          26.3489
          31.5741
          31.5741
          31.5741
          31.5741
          26.3489
          26.3489
          31.6081
          31.6081
          31.6081
          31.6081
          26.3489
          26.3489
          31.4352
          31.4351
          31.4351
          31.435
          26.3489
          26.3489
          26.3489
          26.3489
          26.3489
          26.3489
          26.3489
          26.3489
          26.3489
          31.3897
          31.3899
          31.3899
          31.3899
          26.3489
          26.3489
          31.5864
          31.5865
          31.5865
          31.5865
          26.3489
          26.3489
          31.6204
          31.6205
          31.6205
          31.6204
          26.3489
          26.3489
          31.4479
          31.4479
          31.4479
          31.4478
          26.3489
          26.3489
          26.3489
          26.3489
          26.3489
          26.3489
          26.3489
          26.3489
          26.3489
          31.4036
          31.4037
          31.4038
          31.4038
          26.3489
          26.3489
          31.5998
          31.5998
          31.5998
          31.5998
          26.3489
          26.3489
          31.6338
          31.6338
          31.6338
          31.6337
          26.3489
          26.3489
          31.4617
          31.4617
          31.4616
          31.4615
          26.3489
          26.3489
          26.3489
          26.3489
          26.3489
          26.3489
          26.3489
          26.3489
          26.3489
          31.4185
          31.4186
          31.4187
          31.4187
          26.3489
          26.3489
          31.614
          31.614
          31.614
          31.614
          26.3489
          26.3489
          31.648
          31.648
          31.648
          31.648
          26.3489
          26.3489
          31.4765
          31.4765
          31.4764
          31.4763
          26.3489
          26.3489
          26.3489
          26.3489
          26.3489
          26.3489
          26.3489
          26.3489
          26.3489
          31.4344
          31.4345
          31.4346
          31.4346
          26.3489
          26.3489
          31.6292
          31.6293
          31.6293
          31.6292
          26.3489
          26.3489
          31.6633
          31.6633
          31.6633
          31.6632
          26.3489
          26.3489
          31.4922
          31.4922
          31.4922
          31.492
          26.3489
          26.3489
          26.3489
          26.3489
          26.3489
          26.3489
          26.3489
          26.3489
          26.3489
          31.4512
          31.4514
          31.4514
          31.4515
          26.3489
          26.3489
          31.6454
          31.6454
          31.6454
          31.6454
          26.3489
          26.3489
          31.6794
          31.6795
          31.6794
          31.6794
          26.3489
          26.3489
          31.509
          31.509
          31.5089
          31.5088
          26.3489
          26.3489
          26.3489
          26.3489
          26.3489
          26.3489
          26.3489
          26.3489
          26.3489
          31.4691
          31.4692
          31.4693
          31.4693
          26.3489
          26.3489
          31.6625
          31.6625
          31.6626
          31.6626
          26.3489
          26.3489
          31.6966
          31.6966
          31.6966
          31.6966
          26.3489
          26.3489
          31.5267
          31.5267
          31.5266
          31.5265
          26.3489
          26.3489
          26.3489
          26.3489
          26.3489
          26.3489
          26.3489
          26.3489
          26.3489
          31.4879
          31.4881
          31.4882
          31.4882
          26.3489
          26.3489
          31.6805
          31.6806
          31.6807
          31.6807
          26.3489
          26.3489
          31.7147
          31.7147
          31.7147
          31.7146
          26.3489
          26.3489
          31.5455
          31.5454
          31.5453
          31.5452
          26.3489
          26.3489
          26.3489
          26.3489
          26.3489
          26.3489
          26.3489
          26.3489
          26.3489
          31.5076
          31.5079
          31.5081
          31.5082
          26.3489
          26.3489
          31.6994
          31.6996
          31.6998
          31.6999
          26.3489
          26.3489
          31.7339
          31.7338
          31.7337
          31.7336
          26.3489
          26.3489
          31.5653
          31.5652
          31.5649
          31.5647
          26.3489
          26.3489
          26.3489
          26.3489
          26.3489
          26.3489
          26.3489
          26.3489
          26.3489
          31.5281
          31.5285
          31.5292
          31.5295
          26.3489
          26.3489
          31.7189
          31.7193
          31.72
          31.7204
          26.3489
          26.3489
          31.7542
          31.754
          31.7535
          31.7532
          26.3489
          26.3489
          31.5864
          31.5861
          31.5854
          31.585
          26.3489
          26.3489
          26.3489
          26.3489
          26.3489
          26.3489
          26.3489
          26.3489
          26.3489
          31.5486
          31.5497
          31.5516
          31.5527
          26.3489
          26.3489
          31.7382
          31.7394
          31.7418
          31.743
          26.3489
          26.3489
          31.7762
          31.7754
          31.7739
          31.7731
          26.3489
          26.3489
          31.6095
          31.6084
          31.6064
          31.6053
          26.3489
          26.3489
          26.3489
          26.3489
          26.3489
          26.3489
          26.3489
          26.3489
          26.3489
          31.5675
          31.57
          31.5769
          31.5794
          26.3489
          26.3489
          31.7552
          31.7583
          31.7667
          31.7697
          26.3489
          26.3489
          31.8012
          31.7993
          31.7939
          31.792
          26.3489
          26.3489
          31.6361
          31.6336
          31.6265
          31.6239
          26.3489
          26.3489
          26.3489
          26.3489
          26.3489
          31.5383
          31.5528
          31.5638
          31.5739
          31.5809
          31.5872
          31.6007
          31.6269
          31.6841
          31.7243
          31.7594
          31.7759
          31.7927
          31.8155
          31.8523
          31.8592
          31.8389
          31.824
          31.8134
          31.803
          31.7769
          31.7401
          31.6837
          31.6573
          31.6434
          31.6366
          31.6284
          31.6176
          31.6068
          31.5956
          31.5809
          31.5441
          31.5543
          31.5645
          31.5748
          31.5857
          31.5994
          31.6191
          31.6491
          31.6863
          31.7271
          31.7633
          31.7943
          31.82
          31.8437
          31.8614
          31.8682
          31.863
          31.8506
          31.8346
          31.8123
          31.7818
          31.7435
          31.7063
          31.6758
          31.6555
          31.641
          31.6291
          31.618
          31.6074
          31.597
          31.5868
          31.5507
          31.5571
          31.5658
          31.5765
          31.5896
          31.6063
          31.6285
          31.6573
          31.6923
          31.7323
          31.7773
          31.8186
          31.8497
          31.8727
          31.8879
          31.8942
          31.8914
          31.8805
          31.8619
          31.8343
          31.7949
          31.752
          31.7153
          31.6854
          31.6623
          31.6447
          31.6307
          31.6188
          31.6084
          31.5997
          31.5933
          31.5554
          31.5583
          31.5665
          31.5773
          31.591
          31.6085
          31.6312
          31.6599
          31.6945
          31.7351
          31.7856
          31.8332
          31.8659
          31.8891
          31.904
          31.9102
          31.9078
          31.897
          31.8777
          31.8482
          31.8032
          31.7554
          31.7183
          31.6882
          31.6645
          31.6461
          31.6313
          31.6191
          31.6089
          31.6009
          31.598
        </DataArray>
      </PointData>
      <CellData>
      </CellData>
      <Points>
        <DataArray type="Float32" NumberOfComponents="3" format="ascii">
          0.039 0.00195 0.0
          0.0377 0.00195 0.0
          0.0364 0.00195 0.0
          0.0351 0.00195 0.0
          0.0338 0.00195 0.0
          0.0325 0.00195 0.0
          0.0312 0.00195 0.0
          0.0299 0.00195 0.0
          0.0286 0.00195 0.0
          0.0273 0.00195 0.0
          0.026 0.00195 0.0
          0.0247 0.00195 0.0
          0.0234 0.00195 0.0
          0.0221 0.00195 0.0
          0.0208 0.00195 0.0
          0.0195 0.00195 0.0
          0.0182 0.00195 0.0
          0.0169 0.00195 0.0
          0.0156 0.00195 0.0
          0.0143 0.00195 0.0
          0.013 0.00195 0.0
          0.0117 0.00195 0.0
          0.0104 0.00195 0.0
          0.0091 0.00195 0.0
          0.0078 0.00195 0.0
          0.0065 0.00195 0.0
          0.0052 0.00195 0.0
          0.0039 0.00195 0.0
          0.0026 0.00195 0.0
          0.0013 0.00195 0.0
          0 0.00195 0.0
          0.039 0.00065 0.0
          0.0377 0.00065 0.0
          0.0364 0.00065 0.0
          0.0351 0.00065 0.0
          0.0338 0.00065 0.0
          0.0325 0.00065 0.0
          0.0312 0.00065 0.0
          0.0299 0.00065 0.0
          0.0286 0.00065 0.0
          0.0273 0.00065 0.0
          0.026 0.00065 0.0
          0.0247 0.00065 0.0
          0.0234 0.00065 0.0
          0.0221 0.00065 0.0
          0.0208 0.00065 0.0
          0.0195 0.00065 0.0
          0.0182 0.00065 0.0
          0.0169 0.00065 0.0
          0.0156 0.00065 0.0
          0.0143 0.00065 0.0
          0.013 0.00065 0.0
          0.0117 0.00065 0.0
          0.0104 0.00065 0.0
          0.0091 0.00065 0.0
          0.0078 0.00065 0.0
          0.0065 0.00065 0.0
          0.0052 0.00065 0.0
          0.0039 0.00065 0.0
          0.0026 0.00065 0.0
          0.0013 0.00065 0.0
          0 0.00065 0.0
          0.039 -0.00065 0.0
          0.0377 -0.00065 0.0
          0.0364 -0.00065 0.0
          0.0351 -0.00065 0.0
          0.0338 -0.00065 0.0
          0.0325 -0.00065 0.0
          0.0312 -0.00065 0.0
          0.0299 -0.00065 0.0
          0.0286 -0.00065 0.0
          0.0273 -0.00065 0.0
          0.026 -0.00065 0.0
          0.0247 -0.00065 0.0
          0.0234 -0.00065 0.0
          0.0221 -0.00065 0.0
          0.0208 -0.00065 0.0
          0.0195 -0.00065 0.0
          0.0182 -0.00065 0.0
          0.0169 -0.00065 0.0
          0.0156 -0.00065 0.0
          0.0143 -0.00065 0.0
          0.013 -0.00065 0.0
          0.0117 -0.00065 0.0
          0.0104 -0.00065 0.0
          0.0091 -0.00065 0.0
          0.0078 -0.00065 0.0
          0.0065 -0.00065 0.0
          0.0052 -0.00065 0.0
          0.0039 -0.00065 0.0
          0.0026 -0.00065 0.0
          0.0013 -0.00065 0.0
          0 -0.00065 0.0
          0.039 -0.00195 0.0
          0.0377 -0.00195 0.0
          0.0364 -0.00195 0.0
          0.0351 -0.00195 0.0
          0.0338 -0.00195 0.0
          0.0325 -0.00195 0.0
          0.0312 -0.00195 0.0
          0.0299 -0.00195 0.0
          0.0286 -0.00195 0.0
          0.0273 -0.00195 0.0
          0.026 -0.00195 0.0
          0.0247 -0.00195 0.0
          0.0234 -0.00195 0.0
          0.0221 -0.00195 0.0
          0.0208 -0.00195 0.0
          0.0195 -0.00195 0.0
          0.0182 -0.00195 0.0
          0.0169 -0.00195 0.0
          0.0156 -0.00195 0.0
          0.0143 -0.00195 0.0
          0.013 -0.00195 0.0
          0.0117 -0.00195 0.0
          0.0104 -0.00195 0.0
          0.0091 -0.00195 0.0
          0.0078 -0.00195 0.0
          0.0065 -0.00195 0.0
          0.0052 -0.00195 0.0
          0.0039 -0.00195 0.0
          0.0026 -0.00195 0.0
          0.0013 -0.00195 0.0
          0 -0.00195 0.0
          0.039 -0.00325 0.0
          0.0377 -0.00325 0.0
          0.0364 -0.00325 0.0
          0.0351 -0.00325 0.0
          0.0338 -0.00325 0.0
          0.0325 -0.00325 0.0
          0.0312 -0.00325 0.0
          0.0299 -0.00325 0.0
          0.0286 -0.00325 0.0
          0.0273 -0.00325 0.0
          0.026 -0.00325 0.0
          0.0247 -0.00325 0.0
          0.0234 -0.00325 0.0
          0.0221 -0.00325 0.0
          0.0208 -0.00325 0.0
          0.0195 -0.00325 0.0
          0.0182 -0.00325 0.0
          0.0169 -0.00325 0.0
          0.0156 -0.00325 0.0
          0.0143 -0.00325 0.0
          0.013 -0.00325 0.0
          0.0117 -0.00325 0.0
          0.0104 -0.00325 0.0
          0.0091 -0.00325 0.0
          0.0078 -0.00325 0.0
          0.0065 -0.00325 0.0
          0.0052 -0.00325 0.0
          0.0039 -0.00325 0.0
          0.0026 -0.00325 0.0
          0.0013 -0.00325 0.0
          0 -0.00325 0.0
          0.039 -0.00455 0.0
          0.0377 -0.00455 0.0
          0.0364 -0.00455 0.0
          0.0351 -0.00455 0.0
          0.0338 -0.00455 0.0
          0.0325 -0.00455 0.0
          0.0312 -0.00455 0.0
          0.0299 -0.00455 0.0
          0.0286 -0.00455 0.0
          0.0273 -0.00455 0.0
          0.026 -0.00455 0.0
          0.0247 -0.00455 0.0
          0.0234 -0.00455 0.0
          0.0221 -0.00455 0.0
          0.0208 -0.00455 0.0
          0.0195 -0.00455 0.0
          0.0182 -0.00455 0.0
          0.0169 -0.00455 0.0
          0.0156 -0.00455 0.0
          0.0143 -0.00455 0.0
          0.013 -0.00455 0.0
          0.0117 -0.00455 0.0
          0.0104 -0.00455 0.0
          0.0091 -0.00455 0.0
          0.0078 -0.00455 0.0
          0.0065 -0.00455 0.0
          0.0052 -0.00455 0.0
          0.0039 -0.00455 0.0
          0.0026 -0.00455 0.0
          0.0013 -0.00455 0.0
          0 -0.00455 0.0
          0.039 -0.00585 0.0
          0.0377 -0.00585 0.0
          0.0364 -0.00585 0.0
          0.0351 -0.00585 0.0
          0.0338 -0.00585 0.0
          0.0325 -0.00585 0.0
          0.0312 -0.00585 0.0
          0.0299 -0.00585 0.0
          0.0286 -0.00585 0.0
          0.0273 -0.00585 0.0
          0.026 -0.00585 0.0
          0.0247 -0.00585 0.0
          0.0234 -0.00585 0.0
          0.0221 -0.00585 0.0
          0.0208 -0.00585 0.0
          0.0195 -0.00585 0.0
          0.0182 -0.00585 0.0
          0.0169 -0.00585 0.0
          0.0156 -0.00585 0.0
          0.0143 -0.00585 0.0
          0.013 -0.00585 0.0
          0.0117 -0.00585 0.0
          0.0104 -0.00585 0.0
          0.0091 -0.00585 0.0
          0.0078 -0.00585 0.0
          0.0065 -0.00585 0.0
          0.0052 -0.00585 0.0
          0.0039 -0.00585 0.0
          0.0026 -0.00585 0.0
          0.0013 -0.00585 0.0
          0 -0.00585 0.0
          0.039 -0.00715 0.0
          0.0377 -0.00715 0.0
          0.0364 -0.00715 0.0
          0.0351 -0.00715 0.0
          0.0338 -0.00715 0.0
          0.0325 -0.00715 0.0
          0.0312 -0.00715 0.0
          0.0299 -0.00715 0.0
          0.0286 -0.00715 0.0
          0.0273 -0.00715 0.0
          0.026 -0.00715 0.0
          0.0247 -0.00715 0.0
          0.0234 -0.00715 0.0
          0.0221 -0.00715 0.0
          0.0208 -0.00715 0.0
          0.0195 -0.00715 0.0
          0.0182 -0.00715 0.0
          0.0169 -0.00715 0.0
          0.0156 -0.00715 0.0
          0.0143 -0.00715 0.0
          0.013 -0.00715 0.0
          0.0117 -0.00715 0.0
          0.0104 -0.00715 0.0
          0.0091 -0.00715 0.0
          0.0078 -0.00715 0.0
          0.0065 -0.00715 0.0
          0.0052 -0.00715 0.0
          0.0039 -0.00715 0.0
          0.0026 -0.00715 0.0
          0.0013 -0.00715 0.0
          0 -0.00715 0.0
          0.039 -0.00845 0.0
          0.0377 -0.00845 0.0
          0.0364 -0.00845 0.0
          0.0351 -0.00845 0.0
          0.0338 -0.00845 0.0
          0.0325 -0.00845 0.0
          0.0312 -0.00845 0.0
          0.0299 -0.00845 0.0
          0.0286 -0.00845 0.0
          0.0273 -0.00845 0.0
          0.026 -0.00845 0.0
          0.0247 -0.00845 0.0
          0.0234 -0.00845 0.0
          0.0221 -0.00845 0.0
          0.0208 -0.00845 0.0
          0.0195 -0.00845 0.0
          0.0182 -0.00845 0.0
          0.0169 -0.00845 0.0
          0.0156 -0.00845 0.0
          0.0143 -0.00845 0.0
          0.013 -0.00845 0.0
          0.0117 -0.00845 0.0
          0.0104 -0.00845 0.0
          0.0091 -0.00845 0.0
          0.0078 -0.00845 0.0
          0.0065 -0.00845 0.0
          0.0052 -0.00845 0.0
          0.0039 -0.00845 0.0
          0.0026 -0.00845 0.0
          0.0013 -0.00845 0.0
          0 -0.00845 0.0
          0.039 -0.00975 0.0
          0.0377 -0.00975 0.0
          0.0364 -0.00975 0.0
          0.0351 -0.00975 0.0
          0.0338 -0.00975 0.0
          0.0325 -0.00975 0.0
          0.0312 -0.00975 0.0
          0.0299 -0.00975 0.0
          0.0286 -0.00975 0.0
          0.0273 -0.00975 0.0
          0.026 -0.00975 0.0
          0.0247 -0.00975 0.0
          0.0234 -0.00975 0.0
          0.0221 -0.00975 0.0
          0.0208 -0.00975 0.0
          0.0195 -0.00975 0.0
          0.0182 -0.00975 0.0
          0.0169 -0.00975 0.0
          0.0156 -0.00975 0.0
          0.0143 -0.00975 0.0
          0.013 -0.00975 0.0
          0.0117 -0.00975 0.0
          0.0104 -0.00975 0.0
          0.0091 -0.00975 0.0
          0.0078 -0.00975 0.0
          0.0065 -0.00975 0.0
          0.0052 -0.00975 0.0
          0.0039 -0.00975 0.0
          0.0026 -0.00975 0.0
          0.0013 -0.00975 0.0
          0 -0.00975 0.0
          0.039 -0.01105 0.0
          0.0377 -0.01105 0.0
          0.0364 -0.01105 0.0
          0.0351 -0.01105 0.0
          0.0338 -0.01105 0.0
          0.0325 -0.01105 0.0
          0.0312 -0.01105 0.0
          0.0299 -0.01105 0.0
          0.0286 -0.01105 0.0
          0.0273 -0.01105 0.0
          0.026 -0.01105 0.0
          0.0247 -0.01105 0.0
          0.0234 -0.01105 0.0
          0.0221 -0.01105 0.0
          0.0208 -0.01105 0.0
          0.0195 -0.01105 0.0
          0.0182 -0.01105 0.0
          0.0169 -0.01105 0.0
          0.0156 -0.01105 0.0
          0.0143 -0.01105 0.0
          0.013 -0.01105 0.0
          0.0117 -0.01105 0.0
          0.0104 -0.01105 0.0
          0.0091 -0.01105 0.0
          0.0078 -0.01105 0.0
          0.0065 -0.01105 0.0
          0.0052 -0.01105 0.0
          0.0039 -0.01105 0.0
          0.0026 -0.01105 0.0
          0.0013 -0.01105 0.0
          0 -0.01105 0.0
          0.039 -0.01235 0.0
          0.0377 -0.01235 0.0
          0.0364 -0.01235 0.0
          0.0351 -0.01235 0.0
          0.0338 -0.01235 0.0
          0.0325 -0.01235 0.0
          0.0312 -0.01235 0.0
          0.0299 -0.01235 0.0
          0.0286 -0.01235 0.0
          0.0273 -0.01235 0.0
          0.026 -0.01235 0.0
          0.0247 -0.01235 0.0
          0.0234 -0.01235 0.0
          0.0221 -0.01235 0.0
          0.0208 -0.01235 0.0
          0.0195 -0.01235 0.0
          0.0182 -0.01235 0.0
          0.0169 -0.01235 0.0
          0.0156 -0.01235 0.0
          0.0143 -0.01235 0.0
          0.013 -0.01235 0.0
          0.0117 -0.01235 0.0
          0.0104 -0.01235 0.0
          0.0091 -0.01235 0.0
          0.0078 -0.01235 0.0
          0.0065 -0.01235 0.0
          0.0052 -0.01235 0.0
          0.0039 -0.01235 0.0
          0.0026 -0.01235 0.0
          0.0013 -0.01235 0.0
          0 -0.01235 0.0
          0.039 -0.01365 0.0
          0.0377 -0.01365 0.0
          0.0364 -0.01365 0.0
          0.0351 -0.01365 0.0
          0.0338 -0.01365 0.0
          0.0325 -0.01365 0.0
          0.0312 -0.01365 0.0
          0.0299 -0.01365 0.0
          0.0286 -0.01365 0.0
          0.0273 -0.01365 0.0
          0.026 -0.01365 0.0
          0.0247 -0.01365 0.0
          0.0234 -0.01365 0.0
          0.0221 -0.01365 0.0
          0.0208 -0.01365 0.0
          0.0195 -0.01365 0.0
          0.0182 -0.01365 0.0
          0.0169 -0.01365 0.0
          0.0156 -0.01365 0.0
          0.0143 -0.01365 0.0
          0.013 -0.01365 0.0
          0.0117 -0.01365 0.0
          0.0104 -0.01365 0.0
          0.0091 -0.01365 0.0
          0.0078 -0.01365 0.0
          0.0065 -0.01365 0.0
          0.0052 -0.01365 0.0
          0.0039 -0.01365 0.0
          0.0026 -0.01365 0.0
          0.0013 -0.01365 0.0
          0 -0.01365 0.0
          0.039 -0.01495 0.0
          0.0377 -0.01495 0.0
          0.0364 -0.01495 0.0
          0.0351 -0.01495 0.0
          0.0338 -0.01495 0.0
          0.0325 -0.01495 0.0
          0.0312 -0.01495 0.0
          0.0299 -0.01495 0.0
          0.0286 -0.01495 0.0
          0.0273 -0.01495 0.0
          0.026 -0.01495 0.0
          0.0247 -0.01495 0.0