<?xml version="1.0"?>
<VTKFile type="UnstructuredGrid" version="0.1" byte_order="LittleEndian">
  <UnstructuredGrid>
    <Piece NumberOfPoints="961" NumberOfCells="900">
      <PointData Scalars="Temperature">
        <DataArray type="Float32" Name="Temperature" format="ascii">
          45.9602
          45.9602
          45.9602
          45.9602
          45.9602
          45.9602
          45.9602
          45.9602
          45.9602
          45.9602
          45.9602
          45.9602
          45.9602
          45.9602
          45.9602
          45.9602
          45.9602
          45.9602
          45.9602
          45.9602
          45.9602
          45.9602
          45.9602
          45.9602
          45.9602
          45.9602
          45.9602
          45.9602
          45.9602
          45.9602
          45.9602
          45.9602
          45.9602
          45.9602
          45.9602
          45.9602
          45.9602
          45.9602
          45.9602
          45.9602
          45.9602
          45.9602
          45.9602
          45.9602
          45.9602
          45.9602
          45.9602
          45.9602
          45.9602
          45.9602
          45.9602
          45.9602
          45.9602
          45.9602
          45.9602
          45.9602
          45.9602
          45.9602
          45.9602
          45.9602
          45.9602
          45.9602
          45.9602
          45.9602
          45.9602
          45.9602
          45.9602
          45.9602
          45.9602
          45.9602
          45.9602
          45.9602
          45.9602
          45.9602
          45.9602
          45.9602
          45.9602
          45.9602
          45.9602
          45.9602
          45.9602
          45.9602
          45.9602
          45.9602
          45.9602
          45.9602
          45.9602
          45.9602
          45.9602
          45.9602
          45.9602
          45.9602
          45.9602
          45.9602
          45.9602
          45.9602
          45.9602
          69.6709
          69.673
          69.6735
          69.6724
          45.9602
          45.9602
          70.0152
          70.0164
          70.0164
          70.0152
          45.9602
          45.9602
          70.0527
          70.0539
          70.0539
          70.0527
          45.9602
          45.9602
          69.7519
          69.753
          69.7526
          69.7506
          45.9602
          45.9602
          45.9602
          45.9602
          45.9602
          45.9602
          45.9602
          45.9602
          45.9602
          69.6739
          69.6747
          69.6752
          69.6751
          45.9602
          45.9602
          70.0177
          70.0179
          70.0179
          70.0177
          45.9602
          45.9602
          70.0552
          70.0555
          70.0555
          70.0552
          45.9602
          45.9602
          69.7545
          69.7546
          69.7543
          69.7536
          45.9602
          45.9602
          45.9602
          45.9602
          45.9602
          45.9602
          45.9602
          45.9602
          45.9602
          69.6769
          69.6776
          69.6779
          69.6779
          45.9602
          45.9602
          70.0202
          70.0203
          70.0203
          70.0202
          45.9602
          45.9602
          70.0577
          70.0579
          70.0579
          70.0577
          45.9602
          45.9602
          69.7573
          69.7573
          69.757
          69.7564
          45.9602
          45.9602
          45.9602
          45.9602
          45.9602
          45.9602
          45.9602
          45.9602
          45.9602
          69.6804
          69.6811
          69.6814
          69.6815
          45.9602
          45.9602
          70.023
          70.0231
          70.0232
          70.0231
          45.9602
          45.9602
          70.0606
          70.0607
          70.0607
          70.0606
          45.9602
          45.9602
          69.7607
          69.7607
          69.7604
          69.7599
          45.9602
          45.9602
          45.9602
          45.9602
          45.9602
          45.9602
          45.9602
          45.9602
          45.9602
          69.6846
          69.6852
          69.6856
          69.6856
          45.9602
          45.9602
          70.0263
          70.0264
          70.0264
          70.0263
          45.9602
          45.9602
          70.0639
          70.064
          70.064
          70.0639
          45.9602
          45.9602
          69.7647
          69.7647
          69.7644
          69.7639
          45.9602
          45.9602
          45.9602
          45.9602
          45.9602
          45.9602
          45.9602
          45.9602
          45.9602
          69.6893
          69.69
          69.6903
          69.6904
          45.9602
          45.9602
          70.03
          70.0301
          70.0301
          70.03
          45.9602
          45.9602
          70.0675
          70.0676
          70.0676
          70.0675
          45.9602
          45.9602
          69.7693
          69.7693
          69.769
          69.7685
          45.9602
          45.9602
          45.9602
          45.9602
          45.9602
          45.9602
          45.9602
          45.9602
          45.9602
          69.6947
          69.6953
          69.6957
          69.6957
          45.9602
          45.9602
          70.034
          70.0341
          70.0341
          70.0341
          45.9602
          45.9602
          70.0716
          70.0717
          70.0717
          70.0716
          45.9602
          45.9602
          69.7744
          69.7744
          69.7742
          69.7736
          45.9602
          45.9602
          45.9602
          45.9602
          45.9602
          45.9602
          45.9602
          45.9602
          45.9602
          69.7007
          69.7013
          69.7017
          69.7017
          45.9602
          45.9602
          70.0385
          70.0386
          70.0386
          70.0385
          45.9602
          45.9602
          70.0761
          70.0761
          70.0761
          70.0761
          45.9602
          45.9602
          69.7802
          69.7801
          69.7799
          69.7793
          45.9602
          45.9602
          45.9602
          45.9602
          45.9602
          45.9602
          45.9602
          45.9602
          45.9602
          69.7073
          69.7079
          69.7082
          69.7083
          45.9602
          45.9602
          70.0433
          70.0434
          70.0434
          70.0434
          45.9602
          45.9602
          70.0809
          70.081
          70.081
          70.0809
          45.9602
          45.9602
          69.7864
          69.7864
          69.7862
          69.7856
          45.9602
          45.9602
          45.9602
          45.9602
          45.9602
          45.9602
          45.9602
          45.9602
          45.9602
          69.7145
          69.7151
          69.7155
          69.7155
          45.9602
          45.9602
          70.0486
          70.0487
          70.0487
          70.0486
          45.9602
          45.9602
          70.0862
          70.0862
          70.0862
          70.0862
          45.9602
          45.9602
          69.7933
          69.7933
          69.793
          69.7925
          45.9602
          45.9602
          45.9602
          45.9602
          45.9602
          45.9602
          45.9602
          45.9602
          45.9602
          69.7223
          69.7229
          69.7233
          69.7233
          45.9602
          45.9602
          70.0542
          70.0543
          70.0543
          70.0542
          45.9602
          45.9602
          70.0918
          70.0919
          70.0919
          70.0918
          45.9602
          45.9602
          69.8007
          69.8007
          69.8004
          69.7999
          45.9602
          45.9602
          45.9602
          45.9602
          45.9602
          45.9602
          45.9602
          45.9602
          45.9602
          69.7307
          69.7314
          69.7317
          69.7317
          45.9602
          45.9602
          70.0603
          70.0603
          70.0603
          70.0603
          45.9602
          45.9602
          70.0979
          70.0979
          70.0979
          70.0978
          45.9602
          45.9602
          69.8087
          69.8087
          69.8084
          69.8079
          45.9602
          45.9602
          45.9602
          45.9602
          45.9602
          45.9602
          45.9602
          45.9602
          45.9602
          69.7398
          69.7404
          69.7407
          69.7408
          45.9602
          45.9602
          70.0667
          70.0668
          70.0668
          70.0667
          45.9602
          45.9602
          70.1043
          70.1044
          70.1044
          70.1043
          45.9602
          45.9602
          69.8173
          69.8172
          69.817
          69.8165
          45.9602
          45.9602
          45.9602
          45.9602
          45.9602
          45.9602
          45.9602
          45.9602
          45.9602
          69.7494
          69.75
          69.7504
          69.7504
          45.9602
          45.9602
          70.0735
          70.0736
          70.0736
          70.0735
          45.9602
          45.9602
          70.1111
          70.1112
          70.1112
          70.1111
          45.9602
          45.9602
          69.8264
          69.8264
          69.8261
          69.8256
          45.9602
          45.9602
          45.9602
          45.9602
          45.9602
          45.9602
          45.9602
          45.9602
          45.9602
          69.7597
          69.7603
          69.7606
          69.7607
          45.9602
          45.9602
          70.0807
          70.0808
          70.0808
          70.0807
          45.9602
          45.9602
          70.1183
          70.1184
          70.1184
          70.1183
          45.9602
          45.9602
          69.8361
          69.8361
          69.8358
          69.8353
          45.9602
          45.9602
          45.9602
          45.9602
          45.9602
          45.9602
          45.9602
          45.9602
          45.9602
          69.7705
          69.7712
          69.7715
          69.7716
          45.9602
          45.9602
          70.0883
          70.0884
          70.0884
          70.0884
          45.9602
          45.9602
          70.126
          70.126
          70.126
          70.126
          45.9602
          45.9602
          69.8464
          69.8463
          69.8461
          69.8455
          45.9602
          45.9602
          45.9602
          45.9602
          45.9602
          45.9602
          45.9602
          45.9602
          45.9602
          69.782
          69.7827
          69.783
          69.7831
          45.9602
          45.9602
          70.0964
          70.0964
          70.0964
          70.0964
          45.9602
          45.9602
          70.134
          70.1341
          70.1341
          70.134
          45.9602
          45.9602
          69.8572
          69.8572
          69.8569
          69.8564
          45.9602
          45.9602
          45.9602
          45.9602
          45.9602
          45.9602
          45.9602
          45.9602
          45.9602
          69.7941
          69.7948
          69.7951
          69.7952
          45.9602
          45.9602
          70.1047
          70.1048
          70.1048
          70.1048
          45.9602
          45.9602
          70.1424
          70.1425
          70.1425
          70.1424
          45.9602
          45.9602
          69.8686
          69.8686
          69.8683
          69.8678
          45.9602
          45.9602
          45.9602
          45.9602
          45.9602
          45.9602
          45.9602
          45.9602
          45.9602
          69.8068
          69.8075
          69.8078
          69.8079
          45.9602
          45.9602
          70.1135
          70.1136
          70.1137
          70.1136
          45.9602
          45.9602
          70.1512
          70.1513
          70.1513
          70.1512
          45.9602
          45.9602
          69.8806
          69.8806
          69.8803
          69.8797
          45.9602
          45.9602
          45.9602
          45.9602
          45.9602
          45.9602
          45.9602
          45.9602
          45.9602
          69.8201
          69.8208
          69.8212
          69.8213
          45.9602
          45.9602
          70.1227
          70.1228
          70.1229
          70.1229
          45.9602
          45.9602
          70.1605
          70.1605
          70.1604
          70.1603
          45.9602
          45.9602
          69.8932
          69.8931
          69.8928
          69.8922
          45.9602
          45.9602
          45.9602
          45.9602
          45.9602
          45.9602
          45.9602
          45.9602
          45.9602
          69.8338
          69.8346
          69.8352
          69.8354
          45.9602
          45.9602
          70.132
          70.1323
          70.1326
          70.1326
          45.9602
          45.9602
          70.1702
          70.1702
          70.17
          70.1698
          45.9602
          45.9602
          69.9065
          69.9063
          69.9057
          69.9051
          45.9602
          45.9602
          45.9602
          45.9602
          45.9602
          45.9602
          45.9602
          45.9602
          45.9602
          69.8476
          69.8487
          69.8501
          69.8507
          45.9602
          45.9602
          70.1414
          70.1419
          70.1429
          70.1433
          45.9602
          45.9602
          70.1806
          70.1804
          70.1797
          70.1793
          45.9602
          45.9602
          69.9209
          69.9203
          69.919
          69.918
          45.9602
          45.9602
          45.9602
          45.9602
          45.9602
          45.9602
          45.9602
          45.9602
          45.9602
          69.8602
          69.8626
          69.8663
          69.8683
          45.9602
          45.9602
          70.1496
          70.1513
          70.1542
          70.1558
          45.9602
          45.9602
          70.1925
          70.1914
          70.1894
          70.1882
          45.9602
          45.9602
          69.9375
          69.9356
          69.9319
          69.9297
          45.9602
          45.9602
          45.9602
          45.9602
          45.9602
          45.9602
          45.9602
          45.9602
          45.9602
          69.8686
          69.8735
          69.8866
          69.8912
          45.9602
          45.9602
          70.1542
          70.1582
          70.1689
          70.1727
          45.9602
          45.9602
          70.2074
          70.2048
          70.1975
          70.1948
          45.9602
          45.9602
          69.9594
          69.9548
          69.9419
          69.9371
          45.9602
          45.9602
          45.9602
          45.9602
          45.9602
          69.6584
          69.7239
          69.77
          69.8116
          69.857
          69.8812
          69.9066
          69.9437
          70.0206
          70.0783
          70.1375
          70.1646
          70.1859
          70.2092
          70.2439
          70.2515
          70.2349
          70.2205
          70.206
          70.1859
          70.1375
          70.0845
          70.0104
          69.974
          69.9488
          69.9243
          69.8787
          69.8382
          69.7967
          69.7508
          69.6852
          69.6851
          69.7302
          69.7723
          69.8124
          69.8499
          69.8858
          69.9227
          69.9688
          70.0225
          70.0805
          70.1319
          70.1744
          70.2068
          70.2335
          70.2525
          70.26
          70.2548
          70.2404
          70.2189
          70.1861
          70.1417
          70.0876
          70.0352
          69.9896
          69.9528
          69.9166
          69.8789
          69.839
          69.7992
          69.7571
          69.712
          69.7148
          69.7424
          69.7759
          69.8127
          69.8504
          69.889
          69.9305
          69.9768
          70.0284
          70.0838
          70.1423
          70.1944
          70.2328
          70.2603
          70.2777
          70.2847
          70.2808
          70.2666
          70.2418
          70.2047
          70.1529
          70.0957
          70.0436
          69.9973
          69.9557
          69.9167
          69.8783
          69.8402
          69.803
          69.7694
          69.7418
          69.7367
          69.7475
          69.7777
          69.8132
          69.8509
          69.8903
          69.9326
          69.9792
          70.0302
          70.086
          70.1495
          70.2076
          70.2479
          70.2759
          70.2932
          70.3001
          70.2964
          70.282
          70.2563
          70.2175
          70.1606
          70.0988
          70.0463
          69.9994
          69.9569
          69.917
          69.8784
          69.8407
          69.8049
          69.7745
          69.7637
        </DataArray>
      </PointData>
      <CellData>
      </CellData>
      <Points>
        <DataArray type="Float32" NumberOfComponents="3" format="ascii">
          0.039 0.00195 0.0
          0.0377 0.00195 0.0
          0.0364 0.00195 0.0
          0.0351 0.00195 0.0
          0.0338 0.00195 0.0
          0.0325 0.00195 0.0
          0.0312 0.00195 0.0
          0.0299 0.00195 0.0
          0.0286 0.00195 0.0
          0.0273 0.00195 0.0
          0.026 0.00195 0.0
          0.0247 0.00195 0.0
          0.0234 0.00195 0.0
          0.0221 0.00195 0.0
          0.0208 0.00195 0.0
          0.0195 0.00195 0.0
          0.0182 0.00195 0.0
          0.0169 0.00195 0.0
          0.0156 0.00195 0.0
          0.0143 0.00195 0.0
          0.013 0.00195 0.0
          0.0117 0.00195 0.0
          0.0104 0.00195 0.0
          0.0091 0.00195 0.0
          0.0078 0.00195 0.0
          0.0065 0.00195 0.0
          0.0052 0.00195 0.0
          0.0039 0.00195 0.0
          0.0026 0.00195 0.0
          0.0013 0.00195 0.0
          0 0.00195 0.0
          0.039 0.00065 0.0
          0.0377 0.00065 0.0
          0.0364 0.00065 0.0
          0.0351 0.00065 0.0
          0.0338 0.00065 0.0
          0.0325 0.00065 0.0
          0.0312 0.00065 0.0
          0.0299 0.00065 0.0
          0.0286 0.00065 0.0
          0.0273 0.00065 0.0
          0.026 0.00065 0.0
          0.0247 0.00065 0.0
          0.0234 0.00065 0.0
          0.0221 0.00065 0.0
          0.0208 0.00065 0.0
          0.0195 0.00065 0.0
          0.0182 0.00065 0.0
          0.0169 0.00065 0.0
          0.0156 0.00065 0.0
          0.0143 0.00065 0.0
          0.013 0.00065 0.0
          0.0117 0.00065 0.0
          0.0104 0.00065 0.0
          0.0091 0.00065 0.0
          0.0078 0.00065 0.0
          0.0065 0.00065 0.0
          0.0052 0.00065 0.0
          0.0039 0.00065 0.0
          0.0026 0.00065 0.0
          0.0013 0.00065 0.0
          0 0.00065 0.0
          0.039 -0.00065 0.0
          0.0377 -0.00065 0.0
          0.0364 -0.00065 0.0
          0.0351 -0.00065 0.0
          0.0338 -0.00065 0.0
          0.0325 -0.00065 0.0
          0.0312 -0.00065 0.0
          0.0299 -0.00065 0.0
          0.0286 -0.00065 0.0
          0.0273 -0.00065 0.0
          0.026 -0.00065 0.0
          0.0247 -0.00065 0.0
          0.0234 -0.00065 0.0
          0.0221 -0.00065 0.0
          0.0208 -0.00065 0.0
          0.0195 -0.00065 0.0
          0.0182 -0.00065 0.0
          0.0169 -0.00065 0.0
          0.0156 -0.00065 0.0
          0.0143 -0.00065 0.0
          0.013 -0.00065 0.0
          0.0117 -0.00065 0.0
          0.0104 -0.00065 0.0
          0.0091 -0.00065 0.0
          0.0078 -0.00065 0.0
          0.0065 -0.00065 0.0
          0.0052 -0.00065 0.0
          0.0039 -0.00065 0.0
          0.0026 -0.00065 0.0
          0.0013 -0.00065 0.0
          0 -0.00065 0.0
          0.039 -0.00195 0.0
          0.0377 -0.00195 0.0
          0.0364 -0.00195 0.0
          0.0351 -0.00195 0.0
          0.0338 -0.00195 0.0
          0.0325 -0.00195 0.0
          0.0312 -0.00195 0.0
          0.0299 -0.00195 0.0
          0.0286 -0.00195 0.0
          0.0273 -0.00195 0.0
          0.026 -0.00195 0.0
          0.0247 -0.00195 0.0
          0.0234 -0.00195 0.0
          0.0221 -0.00195 0.0
          0.0208 -0.00195 0.0
          0.0195 -0.00195 0.0
          0.0182 -0.00195 0.0
          0.0169 -0.00195 0.0
          0.0156 -0.00195 0.0
          0.0143 -0.00195 0.0
          0.013 -0.00195 0.0
          0.0117 -0.00195 0.0
          0.0104 -0.00195 0.0
          0.0091 -0.00195 0.0
          0.0078 -0.00195 0.0
          0.0065 -0.00195 0.0
          0.0052 -0.00195 0.0
          0.0039 -0.00195 0.0
          0.0026 -0.00195 0.0
          0.0013 -0.00195 0.0
          0 -0.00195 0.0
          0.039 -0.00325 0.0
          0.0377 -0.00325 0.0
          0.0364 -0.00325 0.0
          0.0351 -0.00325 0.0
          0.0338 -0.00325 0.0
          0.0325 -0.00325 0.0
          0.0312 -0.00325 0.0
          0.0299 -0.00325 0.0
          0.0286 -0.00325 0.0
          0.0273 -0.00325 0.0
          0.026 -0.00325 0.0
          0.0247 -0.00325 0.0
          0.0234 -0.00325 0.0
          0.0221 -0.00325 0.0
          0.0208 -0.00325 0.0
          0.0195 -0.00325 0.0
          0.0182 -0.00325 0.0
          0.0169 -0.00325 0.0
          0.0156 -0.00325 0.0
          0.0143 -0.00325 0.0
          0.013 -0.00325 0.0
          0.0117 -0.00325 0.0
          0.0104 -0.00325 0.0
          0.0091 -0.00325 0.0
          0.0078 -0.00325 0.0
          0.0065 -0.00325 0.0
          0.0052 -0.00325 0.0
          0.0039 -0.00325 0.0
          0.0026 -0.00325 0.0
          0.0013 -0.00325 0.0
          0 -0.00325 0.0
          0.039 -0.00455 0.0
          0.0377 -0.00455 0.0
          0.0364 -0.00455 0.0
          0.0351 -0.00455 0.0
          0.0338 -0.00455 0.0
          0.0325 -0.00455 0.0
          0.0312 -0.00455 0.0
          0.0299 -0.00455 0.0
          0.0286 -0.00455 0.0
          0.0273 -0.00455 0.0
          0.026 -0.00455 0.0
          0.0247 -0.00455 0.0
          0.0234 -0.00455 0.0
          0.0221 -0.00455 0.0
          0.0208 -0.00455 0.0
          0.0195 -0.00455 0.0
          0.0182 -0.00455 0.0
          0.0169 -0.00455 0.0
          0.0156 -0.00455 0.0
          0.0143 -0.00455 0.0
          0.013 -0.00455 0.0
          0.0117 -0.00455 0.0
          0.0104 -0.00455 0.0
          0.0091 -0.00455 0.0
          0.0078 -0.00455 0.0
          0.0065 -0.00455 0.0
          0.0052 -0.00455 0.0
          0.0039 -0.00455 0.0
          0.0026 -0.00455 0.0
          0.0013 -0.00455 0.0
          0 -0.00455 0.0
          0.039 -0.00585 0.0
          0.0377 -0.00585 0.0
          0.0364 -0.00585 0.0
          0.0351 -0.00585 0.0
          0.0338 -0.00585 0.0
          0.0325 -0.00585 0.0
          0.0312 -0.00585 0.0
          0.0299 -0.00585 0.0
          0.0286 -0.00585 0.0
          0.0273 -0.00585 0.0
          0.026 -0.00585 0.0
          0.0247 -0.00585 0.0
          0.0234 -0.00585 0.0
          0.0221 -0.00585 0.0
          0.0208 -0.00585 0.0
          0.0195 -0.00585 0.0
          0.0182 -0.00585 0.0
          0.0169 -0.00585 0.0
          0.0156 -0.00585 0.0
          0.0143 -0.00585 0.0
          0.013 -0.00585 0.0
          0.0117 -0.00585 0.0
          0.0104 -0.00585 0.0
          0.0091 -0.00585 0.0
          0.0078 -0.00585 0.0
          0.0065 -0.00585 0.0
          0.0052 -0.00585 0.0
          0.0039 -0.00585 0.0
          0.0026 -0.00585 0.0
          0.0013 -0.00585 0.0
          0 -0.00585 0.0
          0.039 -0.00715 0.0
          0.0377 -0.00715 0.0
          0.0364 -0.00715 0.0
          0.0351 -0.00715 0.0
          0.0338 -0.00715 0.0
          0.0325 -0.00715 0.0
          0.0312 -0.00715 0.0
          0.0299 -0.00715 0.0
          0.0286 -0.00715 0.0
          0.0273 -0.00715 0.0
          0.026 -0.00715 0.0
          0.0247 -0.00715 0.0
          0.0234 -0.00715 0.0
          0.0221 -0.00715 0.0
          0.0208 -0.00715 0.0
          0.0195 -0.00715 0.0
          0.0182 -0.00715 0.0
          0.0169 -0.00715 0.0
          0.0156 -0.00715 0.0
          0.0143 -0.00715 0.0
          0.013 -0.00715 0.0
          0.0117 -0.00715 0.0
          0.0104 -0.00715 0.0
          0.0091 -0.00715 0.0
          0.0078 -0.00715 0.0
          0.0065 -0.00715 0.0
          0.0052 -0.00715 0.0
          0.0039 -0.00715 0.0
          0.0026 -0.00715 0.0
          0.0013 -0.00715 0.0
          0 -0.00715 0.0
          0.039 -0.00845 0.0
          0.0377 -0.00845 0.0
          0.0364 -0.00845 0.0
          0.0351 -0.00845 0.0
          0.0338 -0.00845 0.0
          0.0325 -0.00845 0.0
          0.0312 -0.00845 0.0
          0.0299 -0.00845 0.0
          0.0286 -0.00845 0.0
          0.0273 -0.00845 0.0
          0.026 -0.00845 0.0
          0.0247 -0.00845 0.0
          0.0234 -0.00845 0.0
          0.0221 -0.00845 0.0
          0.0208 -0.00845 0.0
          0.0195 -0.00845 0.0
          0.0182 -0.00845 0.0
          0.0169 -0.00845 0.0
          0.0156 -0.00845 0.0
          0.0143 -0.00845 0.0
          0.013 -0.00845 0.0
          0.0117 -0.00845 0.0
          0.0104 -0.00845 0.0
          0.0091 -0.00845 0.0
          0.0078 -0.00845 0.0
          0.0065 -0.00845 0.0
          0.0052 -0.00845 0.0
          0.0039 -0.00845 0.0
          0.0026 -0.00845 0.0
          0.0013 -0.00845 0.0
          0 -0.00845 0.0
          0.039 -0.00975 0.0
          0.0377 -0.00975 0.0
          0.0364 -0.00975 0.0
          0.0351 -0.00975 0.0
          0.0338 -0.00975 0.0
          0.0325 -0.00975 0.0
          0.0312 -0.00975 0.0
          0.0299 -0.00975 0.0
          0.0286 -0.00975 0.0
          0.0273 -0.00975 0.0
          0.026 -0.00975 0.0
          0.0247 -0.00975 0.0
          0.0234 -0.00975 0.0
          0.0221 -0.00975 0.0
          0.0208 -0.00975 0.0
          0.0195 -0.00975 0.0
          0.0182 -0.00975 0.0
          0.0169 -0.00975 0.0
          0.0156 -0.00975 0.0
          0.0143 -0.00975 0.0
          0.013 -0.00975 0.0
          0.0117 -0.00975 0.0
          0.0104 -0.00975 0.0
          0.0091 -0.00975 0.0
          0.0078 -0.00975 0.0
          0.0065 -0.00975 0.0
          0.0052 -0.00975 0.0
          0.0039 -0.00975 0.0
          0.0026 -0.00975 0.0
          0.0013 -0.00975 0.0
          0 -0.00975 0.0
          0.039 -0.01105 0.0
          0.0377 -0.01105 0.0
          0.0364 -0.01105 0.0
          0.0351 -0.01105 0.0
          0.0338 -0.01105 0.0
          0.0325 -0.01105 0.0
          0.0312 -0.01105 0.0
          0.0299 -0.01105 0.0
          0.0286 -0.01105 0.0
          0.0273 -0.01105 0.0
          0.026 -0.01105 0.0
          0.0247 -0.01105 0.0
          0.0234 -0.01105 0.0
          0.0221 -0.01105 0.0
          0.0208 -0.01105 0.0
          0.0195 -0.01105 0.0
          0.0182 -0.01105 0.0
          0.0169 -0.01105 0.0
          0.0156 -0.01105 0.0
          0.0143 -0.01105 0.0
          0.013 -0.01105 0.0
          0.0117 -0.01105 0.0
          0.0104 -0.01105 0.0
          0.0091 -0.01105 0.0
          0.0078 -0.01105 0.0
          0.0065 -0.01105 0.0
          0.0052 -0.01105 0.0
          0.0039 -0.01105 0.0
          0.0026 -0.01105 0.0
          0.0013 -0.01105 0.0
          0 -0.01105 0.0
          0.039 -0.01235 0.0
          0.0377 -0.01235 0.0
          0.0364 -0.01235 0.0
          0.0351 -0.01235 0.0
          0.0338 -0.01235 0.0
          0.0325 -0.01235 0.0
          0.0312 -0.01235 0.0
          0.0299 -0.01235 0.0
          0.0286 -0.01235 0.0
          0.0273 -0.01235 0.0
          0.026 -0.01235 0.0
          0.0247 -0.01235 0.0
          0.0234 -0.01235 0.0
          0.0221 -0.01235 0.0
          0.0208 -0.01235 0.0
          0.0195 -0.01235 0.0
          0.0182 -0.01235 0.0
          0.0169 -0.01235 0.0
          0.0156 -0.01235 0.0
          0.0143 -0.01235 0.0
          0.013 -0.01235 0.0
          0.0117 -0.01235 0.0
          0.0104 -0.01235 0.0
          0.0091 -0.01235 0.0
          0.0078 -0.01235 0.0
          0.0065 -0.01235 0.0
          0.0052 -0.01235 0.0
          0.0039 -0.01235 0.0
          0.0026 -0.01235 0.0
          0.0013 -0.01235 0.0
          0 -0.01235 0.0
          0.039 -0.01365 0.0
          0.0377 -0.01365 0.0
          0.0364 -0.01365 0.0
          0.0351 -0.01365 0.0
          0.0338 -0.01365 0.0
          0.0325 -0.01365 0.0
          0.0312 -0.01365 0.0
          0.0299 -0.01365 0.0
          0.0286 -0.01365 0.0
          0.0273 -0.01365 0.0
          0.026 -0.01365 0.0
          0.0247 -0.01365 0.0
          0.0234 -0.01365 0.0
          0.0221 -0.01365 0.0
          0.0208 -0.01365 0.0
          0.0195 -0.01365 0.0
          0.0182 -0.01365 0.0
          0.0169 -0.01365 0.0
          0.0156 -0.01365 0.0
          0.0143 -0.01365 0.0
          0.013 -0.01365 0.0
          0.0117 -0.01365 0.0
          0.0104 -0.01365 0.0
          0.0091 -0.01365 0.0
          0.0078 -0.01365 0.0
          0.0065 -0.01365 0.0
          0.0052 -0.01365 0.0
          0.0039 -0.01365 0.0
          0.0026 -0.01365 0.0
          0.0013 -0.01365 0.0
          0 -0.01365 0.0
          0.039 -0.01495 0.0
          0.0377 -0.01495 0.0
          0.0364 -0.01495 0.0
          0.0351 -0.01495 0.0
          0.0338 -0.01495 0.0
          0.0325 -0.01495 0.0
          0.0312 -0.01495 0.0
          0.0299 -0.01495 0.0
          0.0286 -0.01495 0.0
          0.0273 -0.01495 0.0
          0.026 -0.01495 0.0
          0.0247 -0.01495 0.0