<?xml version="1.0"?>
<VTKFile type="UnstructuredGrid" version="0.1" byte_order="LittleEndian">
  <UnstructuredGrid>
    <Piece NumberOfPoints="961" NumberOfCells="900">
      <PointData Scalars="Temperature">
        <DataArray type="Float32" Name="Temperature" format="ascii">
          21.0003
          21.0122
          21.0247
          21.0375
          21.0485
          21.0563
          21.0605
          21.0637
          21.0682
          21.0752
          21.083
          21.0887
          21.0907
          21.0898
          21.0887
          21.0898
          21.0928
          21.0949
          21.0936
          21.088
          21.0805
          21.0738
          21.0696
          21.0668
          21.0626
          21.0548
          21.0438
          21.0314
          21.0197
          21.0094
          21.0002
          21.0118
          21.4913
          22.0159
          22.554
          23.0323
          23.3473
          23.5093
          23.6075
          23.7867
          24.0859
          24.4374
          24.6882
          24.7611
          24.6948
          24.6308
          24.6778
          24.8243
          24.9411
          24.8906
          24.6459
          24.3002
          24.0135
          23.8516
          23.7668
          23.6089
          23.2908
          22.8111
          22.2853
          21.796
          21.3829
          21.0092
          21.0224
          21.9366
          22.9518
          24.211
          25.2512
          25.9349
          26.0951
          26.1301
          26.3701
          27.1222
          27.9868
          28.6296
          28.7018
          28.382
          28.0856
          28.2045
          28.6746
          29.0972
          29.0472
          28.4007
          27.5373
          26.8162
          26.6216
          26.6231
          26.467
          25.7657
          24.7125
          23.4646
          22.5173
          21.7293
          21.0175
          21.0313
          22.3096
          23.7443
          25.5291
          28.892
          28.8924
          28.8925
          28.8925
          28.3302
          29.4455
          33.0048
          33.0052
          33.0053
          33.005
          30.7129
          30.8898
          33.6586
          33.6589
          33.6589
          33.6584
          30.0126
          28.9431
          29.7157
          29.7158
          29.7156
          29.7152
          26.2226
          24.4641
          23.1281
          22.0254
          21.0246
          21.038
          22.5847
          24.2876
          26.3922
          28.912
          28.9122
          28.9123
          28.9123
          29.5035
          30.8709
          33.0298
          33.0299
          33.03
          33.0299
          32.2992
          32.5164
          33.6845
          33.6845
          33.6845
          33.6844
          31.5286
          30.2173
          29.737
          29.737
          29.7369
          29.7367
          27.2161
          25.1656
          23.5927
          22.2571
          21.0302
          21.0424
          22.7615
          24.6065
          26.6689
          28.971
          28.9711
          28.9712
          28.9713
          29.9624
          31.3346
          33.1033
          33.1034
          33.1035
          33.1035
          32.8636
          33.0818
          33.7607
          33.7607
          33.7607
          33.7606
          32.025
          30.7094
          29.8002
          29.8001
          29.8
          29.7999
          27.5598
          25.5978
          23.911
          22.4244
          21.0343
          21.0452
          22.8689
          24.777
          26.8328
          29.0691
          29.0692
          29.0693
          29.0694
          30.1906
          31.5709
          33.2256
          33.2257
          33.2257
          33.2257
          33.1391
          33.3588
          33.8875
          33.8875
          33.8875
          33.8874
          32.2758
          30.953
          29.9054
          29.9053
          29.9052
          29.9051
          27.7706
          25.848
          24.1207
          22.5401
          21.0372
          21.047
          22.9404
          24.8978
          26.9728
          29.2064
          29.2065
          29.2066
          29.2067
          30.3765
          31.7681
          33.3966
          33.3967
          33.3967
          33.3967
          33.3591
          33.5809
          34.0647
          34.0648
          34.0647
          34.0646
          32.4834
          31.1505
          30.0526
          30.0525
          30.0524
          30.0523
          27.9475
          26.0286
          24.2677
          22.6227
          21.0393
          21.0486
          23.0008
          25.0083
          27.1208
          29.3831
          29.3832
          29.3833
          29.3834
          30.5787
          31.9847
          33.6163
          33.6164
          33.6165
          33.6165
          33.596
          33.8204
          34.2925
          34.2926
          34.2925
          34.2924
          32.7105
          31.3648
          30.242
          30.2419
          30.2418
          30.2417
          28.1276
          26.1881
          24.3888
          22.6888
          21.041
          21.0501
          23.0621
          25.1256
          27.2891
          29.5994
          29.5995
          29.5996
          29.5997
          30.8153
          32.2388
          33.8849
          33.885
          33.8851
          33.8851
          33.8721
          34.0998
          34.5709
          34.5709
          34.5709
          34.5708
          32.9767
          31.6153
          30.4737
          30.4736
          30.4735
          30.4734
          28.3268
          26.3497
          24.5043
          22.7499
          21.0425
          21.0517
          23.1295
          25.2573
          27.4834
          29.8554
          29.8556
          29.8557
          29.8558
          31.0921
          32.5362
          34.2024
          34.2024
          34.2025
          34.2025
          34.1945
          34.4261
          34.8998
          34.8998
          34.8998
          34.8997
          33.288
          31.9083
          30.7479
          30.7478
          30.7477
          30.7476
          28.5525
          26.525
          24.6253
          22.8124
          21.044
          21.0536
          23.2052
          25.4066
          27.7059
          30.1515
          30.1516
          30.1518
          30.1518
          31.4111
          32.8787
          34.5687
          34.5688
          34.5689
          34.5689
          34.5655
          34.8014
          35.2794
          35.2794
          35.2794
          35.2793
          33.6464
          32.2457
          31.0649
          31.0648
          31.0647
          31.0646
          28.8087
          26.7199
          24.7574
          22.8799
          21.0457
          21.0557
          23.2904
          25.575
          27.9579
          30.4879
          30.488
          30.4882
          30.4882
          31.7729
          33.2669
          34.9841
          34.9841
          34.9842
          34.9842
          34.9856
          35.2266
          35.7096
          35.7096
          35.7096
          35.7095
          34.0526
          32.6284
          31.4249
          31.4249
          31.4248
          31.4246
          29.0974
          26.9376
          24.9037
          22.9542
          21.0475
          21.058
          23.3856
          25.7633
          28.2399
          30.8649
          30.8651
          30.8652
          30.8653
          32.1779
          33.7013
          35.4484
          35.4485
          35.4486
          35.4486
          35.4553
          35.7017
          36.1905
          36.1905
          36.1904
          36.1904
          34.5069
          33.0567
          31.8283
          31.8282
          31.8281
          31.8279
          29.4198
          27.1799
          25.066
          23.0365
          21.0495
          21.0605
          23.491
          25.9719
          28.5526
          31.2829
          31.283
          31.2832
          31.2833
          32.6266
          34.1819
          35.9619
          35.962
          35.9621
          35.9621
          35.9746
          36.2271
          36.7221
          36.7221
          36.722
          36.7219
          35.0094
          33.5308
          32.2752
          32.2751
          32.275
          32.2748
          29.7769
          27.448
          25.2456
          23.1274
          21.0517
          21.0634
          23.6069
          26.2013
          28.8963
          31.7422
          31.7424
          31.7425
          31.7426
          33.1191
          34.7091
          36.5246
          36.5247
          36.5247
          36.5247
          36.5435
          36.8026
          37.3044
          37.3044
          37.3044
          37.3043
          35.5604
          34.0512
          32.7661
          32.766
          32.7658
          32.7657
          30.1694
          27.7431
          25.4433
          23.2276
          21.0542
          21.0665
          23.7337
          26.452
          29.2716
          32.2433
          32.2434
          32.2436
          32.2437
          33.6559
          35.2829
          37.1365
          37.1366
          37.1366
          37.1366
          37.1623
          37.4284
          37.9374
          37.9375
          37.9374
          37.9373
          36.16
          34.6179
          33.3012
          33.3011
          33.301
          33.3008
          30.5985
          28.0666
          25.6607
          23.3379
          21.0568
          21.0698
          23.8718
          26.7247
          29.6791
          32.7865
          32.7866
          32.7868
          32.7869
          34.2371
          35.9037
          37.7976
          37.7977
          37.7978
          37.7978
          37.8309
          38.1046
          38.6213
          38.6213
          38.6213
          38.6212
          36.8083
          35.2313
          33.881
          33.8809
          33.8808
          33.8806
          31.0657
          28.4207
          25.8998
          23.4598
          21.0598
          21.0734
          24.0223
          27.0209
          30.12
          33.3722
          33.3724
          33.3726
          33.3727
          34.8631
          36.5715
          38.5082
          38.5083
          38.5084
          38.5084
          38.5494
          38.8312
          39.3559
          39.3559
          39.3559
          39.3558
          37.5054
          35.8917
          34.5059
          34.5058
          34.5056
          34.5054
          31.5735
          28.8095
          26.1648
          23.5956
          21.0631
          21.0778
          24.1871
          27.3438
          30.5967
          34.001
          34.0012
          34.0014
          34.0016
          35.5343
          37.2866
          39.268
          39.2682
          39.2683
          39.2684
          39.3182
          39.6085
          40.1413
          40.1413
          40.1412
          40.1411
          38.2517
          36.5994
          35.1762
          35.176
          35.1758
          35.1756
          32.1269
          29.2405
          26.4631
          23.7501
          21.0672
          21.081
          24.3718
          27.6998
          31.1141
          34.6732
          34.6735
          34.6738
          34.674
          36.2511
          38.0491
          40.0772
          40.0775
          40.0778
          40.078
          40.1378
          40.437
          40.9776
          40.9775
          40.9773
          40.9771
          39.0472
          37.3548
          35.8924
          35.8922
          35.8919
          35.8916
          32.7346
          29.728
          26.8089
          23.9328
          21.0703
          21.0918
          24.5849
          28.1051
          31.6829
          35.389
          35.3895
          35.3903
          35.3907
          37.0139
          38.8592
          40.9355
          40.9361
          40.937
          40.9375
          41.01
          41.3185
          41.8649
          41.8646
          41.864
          41.8636
          39.8925
          38.1587
          36.6552
          36.6547
          36.6539
          36.6534
          33.4129
          30.2986
          27.2308
          24.159
          21.0818
          21.0767
          24.8617
          28.5919
          32.3281
          36.1484
          36.1496
          36.1516
          36.1527
          37.8241
          39.7172
          41.842
          41.8435
          41.8463
          41.8477
          41.9395
          42.2574
          42.8037
          42.8028
          42.8008
          42.7998
          40.7887
          39.0132
          37.4655
          37.4644
          37.4621
          37.4609
          34.1916
          31.0046
          27.7802
          24.4746
          21.0663
          21.1743
          25.2228
          29.2526
          33.1014
          36.9498
          36.9531
          36.9593
          36.9624
          38.6848
          40.6239
          42.7938
          42.7983
          42.8072
          42.8116
          42.9397
          43.2668
          43.7959
          43.793
          43.787
          43.7839
          41.7391
          39.9235
          38.326
          38.3226
          38.3158
          38.3123
          35.1239
          31.9384
          28.5775
          24.9117
          21.1717
          20.8399
          25.972
          30.2303
          34.133
          37.7877
          37.7973
          37.8169
          37.8265
          39.6072
          41.5822
          43.782
          43.7959
          43.8243
          43.8381
          44.0475
          44.3819
          44.8476
          44.8383
          44.819
          44.8096
          42.7536
          40.9067
          39.2438
          39.2333
          39.2118
          39.2012
          36.2857
          33.2856
          29.7987
          25.8032
          20.8175
          22.2859
          26.8762
          32.1329
          35.6029
          38.6413
          38.6742
          38.7336
          38.7665
          40.6276
          42.6071
          44.7757
          44.8235
          44.9103
          44.958
          45.36
          45.6958
          45.9793
          45.9471
          45.8885
          45.8561
          43.8644
          42.0129
          40.2425
          40.2064
          40.1409
          40.1048
          37.7522
          35.2815
          32.1067
          26.9038
          22.362
          16.7205
          31.6514
          35.4667
          37.6467
          39.4614
          39.5391
          39.7548
          39.8326
          41.9003
          43.7273
          45.7016
          45.8162
          46.13
          46.2445
          47.1386
          47.4468
          47.2404
          47.1633
          46.9511
          46.8739
          45.1439
          43.4271
          41.3773
          41.2916
          41.0542
          40.9685
          39.5529
          38.0888
          36.0255
          32.1664
          16.4344
          39.9686
          40.0531
          40.1522
          40.262
          40.1966
          40.2836
          40.7071
          41.6423
          43.7111
          45.1226
          46.2202
          46.743
          47.3728
          48.3198
          49.8629
          50.0908
          49.0806
          48.3964
          47.9734
          47.6603
          46.8455
          45.4794
          43.3108
          42.3069
          41.8393
          41.7205
          41.7344
          41.5722
          41.4247
          41.3094
          41.2175
          39.996
          40.0625
          40.1665
          40.2938
          40.4846
          40.8228
          41.4432
          42.4802
          43.803
          45.2513
          46.5434
          47.6659
          48.6411
          49.5697
          50.2624
          50.4891
          50.215
          49.6666
          49.0306
          48.1954
          47.0638
          45.6279
          44.2224
          43.0977
          42.4086
          42.0123
          41.7671
          41.5855
          41.4307
          41.3165
          41.2449
          40.0296
          40.0822
          40.1928
          40.3747
          40.6631
          41.1218
          41.8244
          42.8055
          44.0486
          45.5066
          47.2
          48.7841
          49.97
          50.8515
          51.4258
          51.6384
          51.4859
          51.0219
          50.2785
          49.2016
          47.6586
          45.99
          44.6009
          43.513
          42.7267
          42.1991
          41.8497
          41.6102
          41.4421
          41.3315
          41.2775
          40.0536
          40.091
          40.2069
          40.4064
          40.7251
          41.2172
          41.9361
          42.9112
          44.1404
          45.6352
          47.5761
          49.4299
          50.6852
          51.5718
          52.1261
          52.3375
          52.2063
          51.7533
          50.9805
          49.8191
          48.0272
          46.1384
          44.7294
          43.6365
          42.8289
          42.2644
          41.8824
          41.6234
          41.4478
          41.3381
          41.3013
        </DataArray>
      </PointData>
      <CellData>
      </CellData>
      <Points>
        <DataArray type="Float32" NumberOfComponents="3" format="ascii">
          0.1 0.005 0.0
          0.0966667 0.005 0.0
          0.0933333 0.005 0.0
          0.09 0.005 0.0
          0.0866667 0.005 0.0
          0.0833333 0.005 0.0
          0.08 0.005 0.0
          0.0766667 0.005 0.0
          0.0733333 0.005 0.0
          0.07 0.005 0.0
          0.0666667 0.005 0.0
          0.0633333 0.005 0.0
          0.06 0.005 0.0
          0.0566667 0.005 0.0
          0.0533333 0.005 0.0
          0.05 0.005 0.0
          0.0466667 0.005 0.0
          0.0433333 0.005 0.0
          0.04 0.005 0.0
          0.0366667 0.005 0.0
          0.0333333 0.005 0.0
          0.03 0.005 0.0
          0.0266667 0.005 0.0
          0.0233333 0.005 0.0
          0.02 0.005 0.0
          0.0166667 0.005 0.0
          0.0133333 0.005 0.0
          0.01 0.005 0.0
          0.00666667 0.005 0.0
          0.00333333 0.005 0.0
          0 0.005 0.0
          0.1 0.00166667 0.0
          0.0966667 0.00166667 0.0
          0.0933333 0.00166667 0.0
          0.09 0.00166667 0.0
          0.0866667 0.00166667 0.0
          0.0833333 0.00166667 0.0
          0.08 0.00166667 0.0
          0.0766667 0.00166667 0.0
          0.0733333 0.00166667 0.0
          0.07 0.00166667 0.0
          0.0666667 0.00166667 0.0
          0.0633333 0.00166667 0.0
          0.06 0.00166667 0.0
          0.0566667 0.00166667 0.0
          0.0533333 0.00166667 0.0
          0.05 0.00166667 0.0
          0.0466667 0.00166667 0.0
          0.0433333 0.00166667 0.0
          0.04 0.00166667 0.0
          0.0366667 0.00166667 0.0
          0.0333333 0.00166667 0.0
          0.03 0.00166667 0.0
          0.0266667 0.00166667 0.0
          0.0233333 0.00166667 0.0
          0.02 0.00166667 0.0
          0.0166667 0.00166667 0.0
          0.0133333 0.00166667 0.0
          0.01 0.00166667 0.0
          0.00666667 0.00166667 0.0
          0.00333333 0.00166667 0.0
          0 0.00166667 0.0
          0.1 -0.00166667 0.0
          0.0966667 -0.00166667 0.0
          0.0933333 -0.00166667 0.0
          0.09 -0.00166667 0.0
          0.0866667 -0.00166667 0.0
          0.0833333 -0.00166667 0.0
          0.08 -0.00166667 0.0
          0.0766667 -0.00166667 0.0
          0.0733333 -0.00166667 0.0
          0.07 -0.00166667 0.0
          0.0666667 -0.00166667 0.0
          0.0633333 -0.00166667 0.0
          0.06 -0.00166667 0.0
          0.0566667 -0.00166667 0.0
          0.0533333 -0.00166667 0.0
          0.05 -0.00166667 0.0
          0.0466667 -0.00166667 0.0
          0.0433333 -0.00166667 0.0
          0.04 -0.00166667 0.0
          0.0366667 -0.00166667 0.0
          0.0333333 -0.00166667 0.0
          0.03 -0.00166667 0.0
          0.0266667 -0.00166667 0.0
          0.0233333 -0.00166667 0.0
          0.02 -0.00166667 0.0
          0.0166667 -0.00166667 0.0
          0.0133333 -0.00166667 0.0
          0.01 -0.00166667 0.0
          0.00666667 -0.00166667 0.0
          0.00333333 -0.00166667 0.0
          0 -0.00166667 0.0
          0.1 -0.005 0.0
          0.0966667 -0.005 0.0
          0.0933333 -0.005 0.0
          0.09 -0.005 0.0
          0.0866667 -0.005 0.0
          0.0833333 -0.005 0.0
          0.08 -0.005 0.0
          0.0766667 -0.005 0.0
          0.0733333 -0.005 0.0
          0.07 -0.005 0.0
          0.0666667 -0.005 0.0
          0.0633333 -0.005 0.0
          0.06 -0.005 0.0
          0.0566667 -0.005 0.0
          0.0533333 -0.005 0.0
          0.05 -0.005 0.0
          0.0466667 -0.005 0.0
          0.0433333 -0.005 0.0
          0.04 -0.005 0.0
          0.0366667 -0.005 0.0
          0.0333333 -0.005 0.0
          0.03 -0.005 0.0
          0.0266667 -0.005 0.0
          0.0233333 -0.005 0.0
          0.02 -0.005 0.0
          0.0166667 -0.005 0.0
          0.0133333 -0.005 0.0
          0.01 -0.005 0.0
          0.00666667 -0.005 0.0
          0.00333333 -0.005 0.0
          0 -0.005 0.0
          0.1 -0.00833333 0.0
          0.0966667 -0.00833333 0.0
          0.0933333 -0.00833333 0.0
          0.09 -0.00833333 0.0
          0.0866667 -0.00833333 0.0
          0.0833333 -0.00833333 0.0
          0.08 -0.00833333 0.0
          0.0766667 -0.00833333 0.0
          0.0733333 -0.00833333 0.0
          0.07 -0.00833333 0.0
          0.0666667 -0.00833333 0.0
          0.0633333 -0.00833333 0.0
          0.06 -0.00833333 0.0
          0.0566667 -0.00833333 0.0
          0.0533333 -0.00833333 0.0
          0.05 -0.00833333 0.0
          0.0466667 -0.00833333 0.0
          0.0433333 -0.00833333 0.0
          0.04 -0.00833333 0.0
          0.0366667 -0.00833333 0.0
          0.0333333 -0.00833333 0.0
          0.03 -0.00833333 0.0
          0.0266667 -0.00833333 0.0
          0.0233333 -0.00833333 0.0
          0.02 -0.00833333 0.0
          0.0166667 -0.00833333 0.0
          0.0133333 -0.00833333 0.0
          0.01 -0.00833333 0.0
          0.00666667 -0.00833333 0.0
          0.00333333 -0.00833333 0.0
          0 -0.00833333 0.0
          0.1 -0.0116667 0.0
          0.0966667 -0.0116667 0.0
          0.0933333 -0.0116667 0.0
          0.09 -0.0116667 0.0
          0.0866667 -0.0116667 0.0
          0.0833333 -0.0116667 0.0
          0.08 -0.0116667 0.0
          0.0766667 -0.0116667 0.0
          0.0733333 -0.0116667 0.0
          0.07 -0.0116667 0.0
          0.0666667 -0.0116667 0.0
          0.0633333 -0.0116667 0.0
          0.06 -0.0116667 0.0
          0.0566667 -0.0116667 0.0
          0.0533333 -0.0116667 0.0
          0.05 -0.0116667 0.0
          0.0466667 -0.0116667 0.0
          0.0433333 -0.0116667 0.0
          0.04 -0.0116667 0.0
          0.0366667 -0.0116667 0.0
          0.0333333 -0.0116667 0.0
          0.03 -0.0116667 0.0
          0.0266667 -0.0116667 0.0
          0.0233333 -0.0116667 0.0
          0.02 -0.0116667 0.0
          0.0166667 -0.0116667 0.0
          0.0133333 -0.0116667 0.0
          0.01 -0.0116667 0.0
          0.00666667 -0.0116667 0.0
          0.00333333 -0.0116667 0.0
          0 -0.0116667 0.0
          0.1 -0.015 0.0
          0.0966667 -0.015 0.0
          0.0933333 -0.015 0.0
          0.09 -0.015 0.0
          0.0866667 -0.015 0.0
          0.0833333 -0.015 0.0
          0.08 -0.015 0.0
          0.0766667 -0.015 0.0
          0.0733333 -0.015 0.0
          0.07 -0.015 0.0
          0.0666667 -0.015 0.0
          0.0633333 -0.015 0.0
          0.06 -0.015 0.0
          0.0566667 -0.015 0.0
          0.0533333 -0.015 0.0
          0.05 -0.015 0.0
          0.0466667 -0.015 0.0
          0.0433333 -0.015 0.0
          0.04 -0.015 0.0
          0.0366667 -0.015 0.0
          0.0333333 -0.015 0.0
          0.03 -0.015 0.0
          0.0266667 -0.015 0.0
          0.0233333 -0.015 0.0
          0.02 -0.015 0.0
          0.0166667 -0.015 0.0
          0.0133333 -0.015 0.0
          0.01 -0.015 0.0
          0.00666667 -0.015 0.0
          0.00333333 -0.015 0.0
          0 -0.015 0.0
          0.1 -0.0183333 0.0
          0.0966667 -0.0183333 0.0
          0.0933333 -0.0183333 0.0
          0.09 -0.0183333 0.0
          0.0866667 -0.0183333 0.0
          0.0833333 -0.0183333 0.0
          0.08 -0.0183333 0.0
          0.0766667 -0.0183333 0.0
          0.0733333 -0.0183333 0.0
          0.07 -0.0183333 0.0
          0.0666667 -0.0183333 0.0
          0.0633333 -0.0183333 0.0
          0.06 -0.0183333 0.0
          0.0566667 -0.0183333 0.0
          0.0533333 -0.0183333 0.0
          0.05 -0.0183333 0.0
          0.0466667 -0.0183333 0.0
          0.0433333 -0.0183333 0.0
          0.04 -0.0183333 0.0
          0.0366667 -0.0183333 0.0
          0.0333333 -0.0183333 0.0
          0.03 -0.0183333 0.0
          0.0266667 -0.0183333 0.0
          0.0233333 -0.0183333 0.0
          0.02 -0.0183333 0.0
          0.0166667 -0.0183333 0.0
          0.0133333 -0.0183333 0.0
          0.01 -0.0183333 0.0
          0.00666667 -0.0183333 0.0
          0.00333333 -0.0183333 0.0
          0 -0.0183333 0.0
          0.1 -0.0216667 0.0
          0.0966667 -0.0216667 0.0
          0.0933333 -0.0216667 0.0
          0.09 -0.0216667 0.0
          0.0866667 -0.0216667 0.0
          0.0833333 -0.0216667 0.0
          0.08 -0.0216667 0.0
          0.0766667 -0.0216667 0.0
          0.0733333 -0.0216667 0.0
          0.07 -0.0216667 0.0
          0.0666667 -0.0216667 0.0
          0.0633333 -0.0216667 0.0
          0.06 -0.0216667 0.0
          0.0566667 -0.0216667 0.0
          0.0533333 -0.0216667 0.0
          0.05 -0.0216667 0.0
          0.0466667 -0.0216667 0.0
          0.0433333 -0.0216667 0.0
          0.04 -0.0216667 0.0
          0.0366667 -0.0216667 0.0
          0.0333333 -0.0216667 0.0
          0.03 -0.0216667 0.0
          0.0266667 -0.0216667 0.0
          0.0233333 -0.0216667 0.0
          0.02 -0.0216667 0.0
          0.0166667 -0.0216667 0.0
          0.0133333 -0.0216667 0.0
          0.01 -0.0216667 0.0
          0.00666667 -0.0216667 0.0
          0.00333333 -0.0216667 0.0
          0 -0.0216667 0.0
          0.1 -0.025 0.0
          0.0966667 -0.025 0.0
          0.0933333 -0.025 0.0
          0.09 -0.025 0.0
          0.0866667 -0.025 0.0
          0.0833333 -0.025 0.0
          0.08 -0.025 0.0
          0.0766667 -0.025 0.0
          0.0733333 -0.025 0.0
          0.07 -0.025 0.0
          0.0666667 -0.025 0.0
          0.0633333 -0.025 0.0
          0.06 -0.025 0.0
          0.0566667 -0.025 0.0
          0.0533333 -0.025 0.0
          0.05 -0.025 0.0
          0.0466667 -0.025 0.0
          0.0433333 -0.025 0.0
          0.04 -0.025 0.0
          0.0366667 -0.025 0.0
          0.0333333 -0.025 0.0
          0.03 -0.025 0.0
          0.0266667 -0.025 0.0
          0.0233333 -0.025 0.0
          0.02 -0.025 0.0
          0.0166667 -0.025 0.0
          0.0133333 -0.025 0.0
          0.01 -0.025 0.0
          0.00666667 -0.025 0.0
          0.00333333 -0.025 0.0
          0 -0.025 0.0
          0.1 -0.0283333 0.0
          0.0966667 -0.0283333 0.0
          0.0933333 -0.0283333 0.0
          0.09 -0.0283333 0.0
          0.0866667 -0.0283333 0.0
          0.0833333 -0.0283333 0.0
          0.08 -0.0283333 0.0
          0.0766667 -0.0283333 0.0
          0.0733333 -0.0283333 0.0
          0.07 -0.0283333 0.0
          0.0666667 -0.0283333 0.0
          0.0633333 -0.0283333 0.0
          0.06 -0.0283333 0.0
          0.0566667 -0.0283333 0.0
          0.0533333 -0.0283333 0.0
          0.05 -0.0283333 0.0
          0.0466667 -0.0283333 0.0
          0.0433333 -0.0283333 0.0
          0.04 -0.0283333 0.0
          0.0366667 -0.0283333 0.0
          0.0333333 -0.0283333 0.0
          0.03 -0.0283333 0.0
          0.0266667 -0.0283333 0.0
          0.0233333 -0.0283333 0.0
          0.02 -0.0283333 0.0
          0.0166667 -0.0283333 0.0
          0.0133333 -0.0283333 0.0
          0.01 -0.0283333 0.0
          0.00666667 -0.0283333 0.0
          0.00333333 -0.0283333 0.0
          0 -0.0283333 0.0
          0.1 -0.0316667 0.0
          0.0966667 -0.0316667 0.0
          0.0933333 -0.0316667 0.0
          0.09 -0.0316667 0.0
          0.0866667 -0.0316667 0.0
          0.0833333 -0.0316667 0.0
          0.08 -0.0316667 0.0
          0.0766667 -0.0316667 0.0
          0.0733333 -0.0316667 0.0
          0.07 -0.0316667 0.0
          0.0666667 -0.0316667 0.0
          0.0633333 -0.0316667 0.0
          0.06 -0.0316667 0.0
          0.0566667 -0.0316667 0.0
          0.0533333 -0.0316667 0.0
          0.05 -0.0316667 0.0
          0.0466667 -0.0316667 0.0
          0.0433333 -0.0316667 0.0
          0.04 -0.0316667 0.0
          0.0366667 -0.0316667 0.0
          0.0333333 -0.0316667 0.0
          0.03 -0.0316667 0.0
          0.0266667 -0.0316667 0.0
          0.0233333 -0.0316667 0.0
          0.02 -0.0316667 0.0
          0.0166667 -0.0316667 0.0
          0.0133333 -0.0316667 0.0
          0.01 -0.0316667 0.0
          0.00666667 -0.0316667 0.0
          0.00333333 -0.0316667 0.0
          0 -0.0316667 0.0
          0.1 -0.035 0.0
          0.0966667 -0.035 0.0
          0.0933333 -0.035 0.0
          0.09 -0.035 0.0
          0.0866667 -0.035 0.0
          0.0833333 -0.035 0.0
          0.08 -0.035 0.0
          0.0766667 -0.035 0.0
          0.0733333 -0.035 0.0
          0.07 -0.035 0.0
          0.0666667 -0.035 0.0
          0.0633333 -0.035 0.0
          0.06 -0.035 0.0
          0.0566667 -0.035 0.0
          0.0533333 -0.035 0.0
          0.05 -0.035 0.0