<?xml version="1.0"?>
<VTKFile type="UnstructuredGrid" version="0.1" byte_order="LittleEndian">
  <UnstructuredGrid>
    <Piece NumberOfPoints="961" NumberOfCells="900">
      <PointData Scalars="Temperature">
        <DataArray type="Float32" Name="Temperature" format="ascii">
          21.0003
          21.0149
          21.0303
          21.0458
          21.0592
          21.0686
          21.0736
          21.0771
          21.0819
          21.0896
          21.0982
          21.1046
          21.1068
          21.1057
          21.1044
          21.1057
          21.109
          21.1115
          21.1101
          21.1039
          21.0955
          21.0882
          21.0838
          21.0807
          21.0758
          21.0665
          21.0533
          21.0382
          21.0241
          21.0116
          21.0003
          21.0145
          21.602
          22.2428
          22.898
          23.4784
          23.8587
          24.049
          24.1536
          24.344
          24.6718
          25.0635
          25.3451
          25.4253
          25.3467
          25.2707
          25.323
          25.4908
          25.6258
          25.5708
          25.297
          24.9135
          24.6015
          24.432
          24.3437
          24.1596
          23.7785
          23.201
          22.5658
          21.9723
          21.4686
          21.0112
          21.0275
          22.1469
          23.3859
          24.9141
          26.1737
          26.9983
          27.1865
          27.2043
          27.4433
          28.2653
          29.2349
          29.9618
          30.0412
          29.6694
          29.3234
          29.4554
          29.9943
          30.4805
          30.4261
          29.6972
          28.7324
          27.9495
          27.7643
          27.7895
          27.6075
          26.7682
          25.5029
          24.0003
          22.8524
          21.892
          21.0214
          21.0384
          22.6024
          24.3512
          26.5142
          30.5626
          30.5631
          30.5633
          30.5632
          29.7888
          31.0066
          35.0467
          35.0472
          35.0473
          35.047
          32.3972
          32.5933
          35.771
          35.7714
          35.7713
          35.7709
          31.6438
          30.4837
          31.5003
          31.5004
          31.5003
          31.4998
          27.3266
          25.2127
          23.5959
          22.2533
          21.0301
          21.0465
          22.9368
          25.0104
          27.5568
          30.5835
          30.5836
          30.5838
          30.5838
          31.1868
          32.6784
          35.0719
          35.0721
          35.0721
          35.0721
          34.244
          34.4848
          35.797
          35.7971
          35.797
          35.7969
          33.4164
          31.9955
          31.5223
          31.5223
          31.5221
          31.522
          28.5208
          26.0607
          24.1594
          22.5349
          21.0369
          21.0518
          23.1498
          25.3935
          27.8856
          30.6446
          30.6447
          30.6449
          30.645
          31.7211
          33.2169
          35.1459
          35.146
          35.1461
          35.1461
          34.8912
          35.1328
          35.8735
          35.8735
          35.8735
          35.8734
          33.991
          32.5663
          31.5875
          31.5874
          31.5873
          31.5871
          28.9285
          26.5787
          24.5425
          22.7367
          21.0419
          21.0551
          23.2766
          25.5928
          28.0723
          30.7462
          30.7464
          30.7465
          30.7466
          31.975
          33.4779
          35.2688
          35.2689
          35.2689
          35.2689
          35.1931
          35.436
          36.0005
          36.0005
          36.0004
          36.0003
          34.2673
          32.8364
          31.6958
          31.6957
          31.6956
          31.6954
          29.1697
          26.8722
          24.7909
          22.8742
          21.0453
          21.0572
          23.3578
          25.728
          28.2246
          30.8885
          30.8886
          30.8888
          30.8888
          32.1719
          33.6847
          35.4406
          35.4407
          35.4407
          35.4408
          35.4219
          35.6668
          36.178
          36.178
          36.178
          36.1779
          34.4843
          33.0447
          31.8474
          31.8473
          31.8472
          31.847
          29.3638
          27.0767
          24.9599
          22.9698
          21.0477
          21.0589
          23.4237
          25.847
          28.3811
          31.0714
          31.0716
          31.0717
          31.0718
          32.381
          33.9065
          35.6613
          35.6614
          35.6615
          35.6615
          35.6622
          35.9095
          36.4061
          36.4061
          36.4061
          36.406
          34.716
          33.2653
          32.0423
          32.0422
          32.0421
          32.0419
          29.5553
          27.2506
          25.0941
          23.0438
          21.0496
          21.0605
          23.4887
          25.9707
          28.557
          31.2952
          31.2954
          31.2955
          31.2956
          32.624
          34.1648
          35.9311
          35.9312
          35.9312
          35.9312
          35.9401
          36.1905
          36.6847
          36.6847
          36.6847
          36.6846
          34.9856
          33.5213
          32.2806
          32.2806
          32.2804
          32.2803
          29.7636
          27.4222
          25.2183
          23.11
          21.0512
          21.0622
          23.5592
          26.1081
          28.7588
          31.56
          31.5602
          31.5603
          31.5604
          32.9075
          34.4664
          36.2498
          36.2499
          36.2499
          36.2499
          36.2639
          36.5178
          37.0139
          37.0139
          37.0139
          37.0138
          35.3001
          33.82
          32.5626
          32.5625
          32.5624
          32.5622
          29.9978
          27.6056
          25.3458
          23.1761
          21.0529
          21.0641
          23.638
          26.2632
          28.9894
          31.866
          31.8662
          31.8663
          31.8664
          33.2339
          34.8135
          36.6174
          36.6175
          36.6176
          36.6176
          36.6361
          36.894
          37.3936
          37.3936
          37.3936
          37.3935
          35.6619
          34.1637
          32.8883
          32.8882
          32.8881
          32.888
          30.2624
          27.808
          25.4835
          23.2467
          21.0546
          21.0663
          23.7264
          26.4377
          29.2501
          32.2134
          32.2136
          32.2137
          32.2138
          33.6038
          35.2066
          37.0341
          37.0342
          37.0343
          37.0343
          37.0574
          37.3198
          37.8239
          37.8239
          37.8238
          37.8237
          36.0717
          34.5532
          33.258
          33.2579
          33.2578
          33.2576
          30.5598
          28.033
          25.6351
          23.3239
          21.0565
          21.0687
          23.825
          26.6326
          29.5416
          32.6024
          32.6026
          32.6028
          32.6029
          34.0177
          35.6462
          37.4999
          37.5
          37.5
          37.5
          37.5282
          37.7956
          38.3046
          38.3046
          38.3046
          38.3045
          36.5297
          34.9887
          33.6718
          33.6717
          33.6716
          33.6714
          30.8915
          28.2829
          25.8029
          23.409
          21.0586
          21.0713
          23.9341
          26.8483
          29.8645
          33.0334
          33.0336
          33.0337
          33.0338
          34.4758
          36.1324
          38.0146
          38.0147
          38.0148
          38.0148
          38.0485
          38.3214
          38.8359
          38.8359
          38.8359
          38.8358
          37.0361
          35.4707
          34.13
          34.1299
          34.1297
          34.1296
          31.2584
          28.5589
          25.988
          23.5028
          21.0609
          21.0743
          24.0539
          27.0852
          30.219
          33.5065
          33.5067
          33.5068
          33.5069
          34.9783
          36.6653
          38.5784
          38.5785
          38.5786
          38.5786
          38.6183
          38.8972
          39.4176
          39.4177
          39.4176
          39.4175
          37.5911
          35.9991
          34.6327
          34.6326
          34.6325
          34.6323
          31.6613
          28.8624
          26.1917
          23.6061
          21.0634
          21.0775
          24.1847
          27.3438
          30.6057
          34.0221
          34.0223
          34.0224
          34.0226
          35.5255
          37.245
          39.1913
          39.1914
          39.1915
          39.1915
          39.2377
          39.5231
          40.0498
          40.0498
          40.0498
          40.0497
          38.1946
          36.5743
          35.1803
          35.1802
          35.1801
          35.1799
          32.1014
          29.1948
          26.4154
          23.7198
          21.0662
          21.081
          24.3272
          27.6249
          31.0252
          34.5805
          34.5807
          34.5808
          34.581
          36.1175
          37.8717
          39.8533
          39.8534
          39.8535
          39.8535
          39.9067
          40.199
          40.7324
          40.7324
          40.7324
          40.7323
          38.8467
          37.1963
          35.7731
          35.773
          35.7728
          35.7726
          32.5802
          29.5587
          26.6616
          23.8454
          21.0693
          21.0846
          24.4823
          27.9301
          31.4788
          35.182
          35.1822
          35.1824
          35.1825
          36.7546
          38.5455
          40.5643
          40.5644
          40.5645
          40.5646
          40.6253
          40.9249
          41.4654
          41.4654
          41.4653
          41.4652
          39.5476
          37.8654
          36.4112
          36.4111
          36.4109
          36.4107
          33.1005
          29.9583
          26.9346
          23.9856
          21.0726
          21.0892
          24.6524
          28.2626
          31.9688
          35.8269
          35.8271
          35.8274
          35.8275
          37.437
          39.2665
          41.3243
          41.3245
          41.3247
          41.3247
          41.3938
          41.7011
          42.2487
          42.2487
          42.2486
          42.2484
          40.2973
          38.5819
          37.0951
          37.0949
          37.0947
          37.0945
          33.6676
          30.4019
          27.2427
          24.1455
          21.0769
          21.0924
          24.8433
          28.6298
          32.5008
          36.5155
          36.5159
          36.5162
          36.5164
          38.1651
          40.0347
          42.1333
          42.1336
          42.1339
          42.1341
          42.2126
          42.5281
          43.0823
          43.0822
          43.082
          43.0818
          41.096
          39.3459
          37.825
          37.8247
          37.8244
          37.8241
          34.2909
          30.9051
          27.6015
          24.3358
          21.08
          21.1039
          25.0646
          29.0493
          33.0863
          37.2481
          37.2486
          37.2494
          37.2498
          38.9393
          40.8503
          42.9909
          42.9915
          42.9924
          42.9929
          43.0835
          43.4074
          43.9664
          43.9661
          43.9654
          43.965
          41.9441
          40.1583
          38.6014
          38.601
          38.6001
          38.5996
          34.9886
          31.4974
          28.0425
          24.573
          21.0924
          21.087
          25.3553
          29.5569
          33.753
          38.0242
          38.0254
          38.0275
          38.0286
          39.7607
          41.7135
          43.8962
          43.8977
          43.9005
          43.902
          44.0112
          44.3437
          44.9014
          44.9004
          44.8985
          44.8975
          42.8427
          41.021
          39.4254
          39.4242
          39.422
          39.4207
          35.7932
          32.2361
          28.6221
          24.908
          21.0751
          21.1942
          25.7381
          30.2546
          34.5581
          38.8424
          38.8457
          38.852
          38.8552
          40.6324
          42.625
          44.8462
          44.8508
          44.8597
          44.8642
          45.0091
          45.3498
          45.8891
          45.8861
          45.8801
          45.877
          43.7949
          41.9392
          40.2993
          40.2958
          40.289
          40.2855
          36.7633
          33.223
          29.473
          25.3757
          21.1906
          20.8251
          26.5481
          31.3001
          35.6455
          39.6968
          39.7066
          39.7264
          39.7361
          41.5656
          43.5876
          45.8319
          45.8459
          45.8747
          45.8886
          46.114
          46.4609
          46.9356
          46.9263
          46.907
          46.8976
          44.8107
          42.9298
          41.2303
          41.2197
          41.198
          41.1874
          37.9827
          34.6619
          30.788
          26.3422
          20.8008
          22.4191
          27.5276
          33.3632
          37.2138
          40.5665
          40.5997
          40.6598
          40.693
          42.5966
          44.6161
          46.8222
          46.8704
          46.9579
          47.006
          47.4231
          47.7701
          48.0615
          48.0292
          47.9705
          47.9382
          45.9222
          44.043
          42.2419
          42.2056
          42.1398
          42.1035
          39.5339
          36.8099
          33.2948
          27.537
          22.4988
          16.2822
          32.7723
          36.998
          39.4107
          41.4014
          41.4799
          41.6979
          41.7765
          43.8805
          45.7385
          47.743
          47.8585
          48.175
          48.2905
          49.1976
          49.5152
          49.3162
          49.2389
          49.0264
          48.9491
          47.201
          45.4641
          43.3895
          43.3034
          43.0648
          42.9787
          41.4473
          39.8411
          37.5656
          33.305
          15.9803
          41.9148
          42.0055
          42.1078
          42.2193
          42.1506
          42.2371
          42.6651
          43.6113
          45.7048
          47.1325
          48.2492
          48.7805
          49.4155
          50.3665
          51.9162
          52.1497
          51.1473
          50.4659
          50.0423
          49.7248
          48.8988
          47.5237
          45.3401
          44.3295
          43.8596
          43.7421
          43.7599
          43.5974
          43.4482
          43.3295
          43.2312
          41.9447
          42.0155
          42.1226
          42.2518
          42.4442
          42.7853
          43.4121
          44.4604
          45.7973
          47.2612
          48.5664
          49.6995
          50.6823
          51.6172
          52.3155
          52.5477
          52.2778
          51.7315
          51.0945
          50.2551
          49.1169
          47.6726
          46.2591
          45.128
          44.4357
          44.0385
          43.7932
          43.611
          43.4544
          43.3372
          43.2614
          41.9815
          42.0365
          42.1497
          42.3342
          42.6257
          43.0891
          43.7989
          44.7899
          46.0452
          47.5159
          49.2214
          50.8158
          52.0101
          52.8985
          53.4786
          53.6961
          53.5469
          53.0843
          52.3399
          51.2595
          49.7111
          48.0361
          46.6405
          45.5473
          44.7573
          44.2277
          43.8769
          43.6361
          43.4663
          43.3535
          43.297
          42.0077
          42.046
          42.1642
          42.3665
          42.6888
          43.186
          43.9122
          44.897
          46.1376
          47.6445
          49.597
          51.461
          52.725
          53.6186
          54.1788
          54.3949
          54.2668
          53.815
          53.0411
          51.8765
          50.0796
          48.1849
          46.7699
          45.672
          44.8607
          44.2937
          43.91
          43.6496
          43.4722
          43.3606
          43.3232
        </DataArray>
      </PointData>
      <CellData>
      </CellData>
      <Points>
        <DataArray type="Float32" NumberOfComponents="3" format="ascii">
          0.1 0.005 0.0
          0.0966667 0.005 0.0
          0.0933333 0.005 0.0
          0.09 0.005 0.0
          0.0866667 0.005 0.0
          0.0833333 0.005 0.0
          0.08 0.005 0.0
          0.0766667 0.005 0.0
          0.0733333 0.005 0.0
          0.07 0.005 0.0
          0.0666667 0.005 0.0
          0.0633333 0.005 0.0
          0.06 0.005 0.0
          0.0566667 0.005 0.0
          0.0533333 0.005 0.0
          0.05 0.005 0.0
          0.0466667 0.005 0.0
          0.0433333 0.005 0.0
          0.04 0.005 0.0
          0.0366667 0.005 0.0
          0.0333333 0.005 0.0
          0.03 0.005 0.0
          0.0266667 0.005 0.0
          0.0233333 0.005 0.0
          0.02 0.005 0.0
          0.0166667 0.005 0.0
          0.0133333 0.005 0.0
          0.01 0.005 0.0
          0.00666667 0.005 0.0
          0.00333333 0.005 0.0
          0 0.005 0.0
          0.1 0.00166667 0.0
          0.0966667 0.00166667 0.0
          0.0933333 0.00166667 0.0
          0.09 0.00166667 0.0
          0.0866667 0.00166667 0.0
          0.0833333 0.00166667 0.0
          0.08 0.00166667 0.0
          0.0766667 0.00166667 0.0
          0.0733333 0.00166667 0.0
          0.07 0.00166667 0.0
          0.0666667 0.00166667 0.0
          0.0633333 0.00166667 0.0
          0.06 0.00166667 0.0
          0.0566667 0.00166667 0.0
          0.0533333 0.00166667 0.0
          0.05 0.00166667 0.0
          0.0466667 0.00166667 0.0
          0.0433333 0.00166667 0.0
          0.04 0.00166667 0.0
          0.0366667 0.00166667 0.0
          0.0333333 0.00166667 0.0
          0.03 0.00166667 0.0
          0.0266667 0.00166667 0.0
          0.0233333 0.00166667 0.0
          0.02 0.00166667 0.0
          0.0166667 0.00166667 0.0
          0.0133333 0.00166667 0.0
          0.01 0.00166667 0.0
          0.00666667 0.00166667 0.0
          0.00333333 0.00166667 0.0
          0 0.00166667 0.0
          0.1 -0.00166667 0.0
          0.0966667 -0.00166667 0.0
          0.0933333 -0.00166667 0.0
          0.09 -0.00166667 0.0
          0.0866667 -0.00166667 0.0
          0.0833333 -0.00166667 0.0
          0.08 -0.00166667 0.0
          0.0766667 -0.00166667 0.0
          0.0733333 -0.00166667 0.0
          0.07 -0.00166667 0.0
          0.0666667 -0.00166667 0.0
          0.0633333 -0.00166667 0.0
          0.06 -0.00166667 0.0
          0.0566667 -0.00166667 0.0
          0.0533333 -0.00166667 0.0
          0.05 -0.00166667 0.0
          0.0466667 -0.00166667 0.0
          0.0433333 -0.00166667 0.0
          0.04 -0.00166667 0.0
          0.0366667 -0.00166667 0.0
          0.0333333 -0.00166667 0.0
          0.03 -0.00166667 0.0
          0.0266667 -0.00166667 0.0
          0.0233333 -0.00166667 0.0
          0.02 -0.00166667 0.0
          0.0166667 -0.00166667 0.0
          0.0133333 -0.00166667 0.0
          0.01 -0.00166667 0.0
          0.00666667 -0.00166667 0.0
          0.00333333 -0.00166667 0.0
          0 -0.00166667 0.0
          0.1 -0.005 0.0
          0.0966667 -0.005 0.0
          0.0933333 -0.005 0.0
          0.09 -0.005 0.0
          0.0866667 -0.005 0.0
          0.0833333 -0.005 0.0
          0.08 -0.005 0.0
          0.0766667 -0.005 0.0
          0.0733333 -0.005 0.0
          0.07 -0.005 0.0
          0.0666667 -0.005 0.0
          0.0633333 -0.005 0.0
          0.06 -0.005 0.0
          0.0566667 -0.005 0.0
          0.0533333 -0.005 0.0
          0.05 -0.005 0.0
          0.0466667 -0.005 0.0
          0.0433333 -0.005 0.0
          0.04 -0.005 0.0
          0.0366667 -0.005 0.0
          0.0333333 -0.005 0.0
          0.03 -0.005 0.0
          0.0266667 -0.005 0.0
          0.0233333 -0.005 0.0
          0.02 -0.005 0.0
          0.0166667 -0.005 0.0
          0.0133333 -0.005 0.0
          0.01 -0.005 0.0
          0.00666667 -0.005 0.0
          0.00333333 -0.005 0.0
          0 -0.005 0.0
          0.1 -0.00833333 0.0
          0.0966667 -0.00833333 0.0
          0.0933333 -0.00833333 0.0
          0.09 -0.00833333 0.0
          0.0866667 -0.00833333 0.0
          0.0833333 -0.00833333 0.0
          0.08 -0.00833333 0.0
          0.0766667 -0.00833333 0.0
          0.0733333 -0.00833333 0.0
          0.07 -0.00833333 0.0
          0.0666667 -0.00833333 0.0
          0.0633333 -0.00833333 0.0
          0.06 -0.00833333 0.0
          0.0566667 -0.00833333 0.0
          0.0533333 -0.00833333 0.0
          0.05 -0.00833333 0.0
          0.0466667 -0.00833333 0.0
          0.0433333 -0.00833333 0.0
          0.04 -0.00833333 0.0
          0.0366667 -0.00833333 0.0
          0.0333333 -0.00833333 0.0
          0.03 -0.00833333 0.0
          0.0266667 -0.00833333 0.0
          0.0233333 -0.00833333 0.0
          0.02 -0.00833333 0.0
          0.0166667 -0.00833333 0.0
          0.0133333 -0.00833333 0.0
          0.01 -0.00833333 0.0
          0.00666667 -0.00833333 0.0
          0.00333333 -0.00833333 0.0
          0 -0.00833333 0.0
          0.1 -0.0116667 0.0
          0.0966667 -0.0116667 0.0
          0.0933333 -0.0116667 0.0
          0.09 -0.0116667 0.0
          0.0866667 -0.0116667 0.0
          0.0833333 -0.0116667 0.0
          0.08 -0.0116667 0.0
          0.0766667 -0.0116667 0.0
          0.0733333 -0.0116667 0.0
          0.07 -0.0116667 0.0
          0.0666667 -0.0116667 0.0
          0.0633333 -0.0116667 0.0
          0.06 -0.0116667 0.0
          0.0566667 -0.0116667 0.0
          0.0533333 -0.0116667 0.0
          0.05 -0.0116667 0.0
          0.0466667 -0.0116667 0.0
          0.0433333 -0.0116667 0.0
          0.04 -0.0116667 0.0
          0.0366667 -0.0116667 0.0
          0.0333333 -0.0116667 0.0
          0.03 -0.0116667 0.0
          0.0266667 -0.0116667 0.0
          0.0233333 -0.0116667 0.0
          0.02 -0.0116667 0.0
          0.0166667 -0.0116667 0.0
          0.0133333 -0.0116667 0.0
          0.01 -0.0116667 0.0
          0.00666667 -0.0116667 0.0
          0.00333333 -0.0116667 0.0
          0 -0.0116667 0.0
          0.1 -0.015 0.0
          0.0966667 -0.015 0.0
          0.0933333 -0.015 0.0
          0.09 -0.015 0.0
          0.0866667 -0.015 0.0
          0.0833333 -0.015 0.0
          0.08 -0.015 0.0
          0.0766667 -0.015 0.0
          0.0733333 -0.015 0.0
          0.07 -0.015 0.0
          0.0666667 -0.015 0.0
          0.0633333 -0.015 0.0
          0.06 -0.015 0.0
          0.0566667 -0.015 0.0
          0.0533333 -0.015 0.0
          0.05 -0.015 0.0
          0.0466667 -0.015 0.0
          0.0433333 -0.015 0.0
          0.04 -0.015 0.0
          0.0366667 -0.015 0.0
          0.0333333 -0.015 0.0
          0.03 -0.015 0.0
          0.0266667 -0.015 0.0
          0.0233333 -0.015 0.0
          0.02 -0.015 0.0
          0.0166667 -0.015 0.0
          0.0133333 -0.015 0.0
          0.01 -0.015 0.0
          0.00666667 -0.015 0.0
          0.00333333 -0.015 0.0
          0 -0.015 0.0
          0.1 -0.0183333 0.0
          0.0966667 -0.0183333 0.0
          0.0933333 -0.0183333 0.0
          0.09 -0.0183333 0.0
          0.0866667 -0.0183333 0.0
          0.0833333 -0.0183333 0.0
          0.08 -0.0183333 0.0
          0.0766667 -0.0183333 0.0
          0.0733333 -0.0183333 0.0
          0.07 -0.0183333 0.0
          0.0666667 -0.0183333 0.0
          0.0633333 -0.0183333 0.0
          0.06 -0.0183333 0.0
          0.0566667 -0.0183333 0.0
          0.0533333 -0.0183333 0.0
          0.05 -0.0183333 0.0
          0.0466667 -0.0183333 0.0
          0.0433333 -0.0183333 0.0
          0.04 -0.0183333 0.0
          0.0366667 -0.0183333 0.0
          0.0333333 -0.0183333 0.0
          0.03 -0.0183333 0.0
          0.0266667 -0.0183333 0.0
          0.0233333 -0.0183333 0.0
          0.02 -0.0183333 0.0
          0.0166667 -0.0183333 0.0
          0.0133333 -0.0183333 0.0
          0.01 -0.0183333 0.0
          0.00666667 -0.0183333 0.0
          0.00333333 -0.0183333 0.0
          0 -0.0183333 0.0
          0.1 -0.0216667 0.0
          0.0966667 -0.0216667 0.0
          0.0933333 -0.0216667 0.0
          0.09 -0.0216667 0.0
          0.0866667 -0.0216667 0.0
          0.0833333 -0.0216667 0.0
          0.08 -0.0216667 0.0
          0.0766667 -0.0216667 0.0
          0.0733333 -0.0216667 0.0
          0.07 -0.0216667 0.0
          0.0666667 -0.0216667 0.0
          0.0633333 -0.0216667 0.0
          0.06 -0.0216667 0.0
          0.0566667 -0.0216667 0.0
          0.0533333 -0.0216667 0.0
          0.05 -0.0216667 0.0
          0.0466667 -0.0216667 0.0
          0.0433333 -0.0216667 0.0
          0.04 -0.0216667 0.0
          0.0366667 -0.0216667 0.0
          0.0333333 -0.0216667 0.0
          0.03 -0.0216667 0.0
          0.0266667 -0.0216667 0.0
          0.0233333 -0.0216667 0.0
          0.02 -0.0216667 0.0
          0.0166667 -0.0216667 0.0
          0.0133333 -0.0216667 0.0
          0.01 -0.0216667 0.0
          0.00666667 -0.0216667 0.0
          0.00333333 -0.0216667 0.0
          0 -0.0216667 0.0
          0.1 -0.025 0.0
          0.0966667 -0.025 0.0
          0.0933333 -0.025 0.0
          0.09 -0.025 0.0
          0.0866667 -0.025 0.0
          0.0833333 -0.025 0.0
          0.08 -0.025 0.0
          0.0766667 -0.025 0.0
          0.0733333 -0.025 0.0
          0.07 -0.025 0.0
          0.0666667 -0.025 0.0
          0.0633333 -0.025 0.0
          0.06 -0.025 0.0
          0.0566667 -0.025 0.0
          0.0533333 -0.025 0.0
          0.05 -0.025 0.0
          0.0466667 -0.025 0.0
          0.0433333 -0.025 0.0
          0.04 -0.025 0.0
          0.0366667 -0.025 0.0
          0.0333333 -0.025 0.0
          0.03 -0.025 0.0
          0.0266667 -0.025 0.0
          0.0233333 -0.025 0.0
          0.02 -0.025 0.0
          0.0166667 -0.025 0.0
          0.0133333 -0.025 0.0
          0.01 -0.025 0.0
          0.00666667 -0.025 0.0
          0.00333333 -0.025 0.0
          0 -0.025 0.0
          0.1 -0.0283333 0.0
          0.0966667 -0.0283333 0.0
          0.0933333 -0.0283333 0.0
          0.09 -0.0283333 0.0
          0.0866667 -0.0283333 0.0
          0.0833333 -0.0283333 0.0
          0.08 -0.0283333 0.0
          0.0766667 -0.0283333 0.0
          0.0733333 -0.0283333 0.0
          0.07 -0.0283333 0.0
          0.0666667 -0.0283333 0.0
          0.0633333 -0.0283333 0.0
          0.06 -0.0283333 0.0
          0.0566667 -0.0283333 0.0
          0.0533333 -0.0283333 0.0
          0.05 -0.0283333 0.0
          0.0466667 -0.0283333 0.0
          0.0433333 -0.0283333 0.0
          0.04 -0.0283333 0.0
          0.0366667 -0.0283333 0.0
          0.0333333 -0.0283333 0.0
          0.03 -0.0283333 0.0
          0.0266667 -0.0283333 0.0
          0.0233333 -0.0283333 0.0
          0.02 -0.0283333 0.0
          0.0166667 -0.0283333 0.0
          0.0133333 -0.0283333 0.0
          0.01 -0.0283333 0.0
          0.00666667 -0.0283333 0.0
          0.00333333 -0.0283333 0.0
          0 -0.0283333 0.0
          0.1 -0.0316667 0.0
          0.0966667 -0.0316667 0.0
          0.0933333 -0.0316667 0.0
          0.09 -0.0316667 0.0
          0.0866667 -0.0316667 0.0
          0.0833333 -0.0316667 0.0
          0.08 -0.0316667 0.0
          0.0766667 -0.0316667 0.0
          0.0733333 -0.0316667 0.0
          0.07 -0.0316667 0.0
          0.0666667 -0.0316667 0.0
          0.0633333 -0.0316667 0.0
          0.06 -0.0316667 0.0
          0.0566667 -0.0316667 0.0
          0.0533333 -0.0316667 0.0
          0.05 -0.0316667 0.0
          0.0466667 -0.0316667 0.0
          0.0433333 -0.0316667 0.0
          0.04 -0.0316667 0.0
          0.0366667 -0.0316667 0.0
          0.0333333 -0.0316667 0.0
          0.03 -0.0316667 0.0
          0.0266667 -0.0316667 0.0
          0.0233333 -0.0316667 0.0
          0.02 -0.0316667 0.0
          0.0166667 -0.0316667 0.0
          0.0133333 -0.0316667 0.0
          0.01 -0.0316667 0.0
          0.00666667 -0.0316667 0.0
          0.00333333 -0.0316667 0.0
          0 -0.0316667 0.0
          0.1 -0.035 0.0
          0.0966667 -0.035 0.0
          0.0933333 -0.035 0.0
          0.09 -0.035 0.0
          0.0866667 -0.035 0.0
          0.0833333 -0.035 0.0
          0.08 -0.035 0.0
          0.0766667 -0.035 0.0
          0.0733333 -0.035 0.0
          0.07 -0.035 0.0
          0.0666667 -0.035 0.0
          0.0633333 -0.035 0.0
          0.06 -0.035 0.0
          0.0566667 -0.035 0.0
          0.0533333 -0.035 0.0
          0.05 -0.035 0.0
          0.0466667 -0.035 0.0