<?xml version="1.0"?>
<VTKFile type="UnstructuredGrid" version="0.1" byte_order="LittleEndian">
  <UnstructuredGrid>
    <Piece NumberOfPoints="961" NumberOfCells="900">
      <PointData Scalars="Temperature">
        <DataArray type="Float32" Name="Temperature" format="ascii">
          46.3187
          46.3187
          46.3187
          46.3187
          46.3187
          46.3187
          46.3187
          46.3187
          46.3187
          46.3187
          46.3187
          46.3187
          46.3187
          46.3187
          46.3187
          46.3187
          46.3187
          46.3187
          46.3187
          46.3187
          46.3187
          46.3187
          46.3187
          46.3187
          46.3187
          46.3187
          46.3187
          46.3187
          46.3187
          46.3187
          46.3187
          46.3187
          46.3187
          46.3187
          46.3187
          46.3187
          46.3187
          46.3187
          46.3187
          46.3187
          46.3187
          46.3187
          46.3187
          46.3187
          46.3187
          46.3187
          46.3187
          46.3187
          46.3187
          46.3187
          46.3187
          46.3187
          46.3187
          46.3187
          46.3187
          46.3187
          46.3187
          46.3187
          46.3187
          46.3187
          46.3187
          46.3187
          46.3187
          46.3187
          46.3187
          46.3187
          46.3187
          46.3187
          46.3187
          46.3187
          46.3187
          46.3187
          46.3187
          46.3187
          46.3187
          46.3187
          46.3187
          46.3187
          46.3187
          46.3187
          46.3187
          46.3187
          46.3187
          46.3187
          46.3187
          46.3187
          46.3187
          46.3187
          46.3187
          46.3187
          46.3187
          46.3187
          46.3187
          46.3187
          46.3187
          46.3187
          46.3187
          70.3722
          70.3744
          70.3749
          70.3738
          46.3187
          46.3187
          70.7192
          70.7204
          70.7204
          70.7192
          46.3187
          46.3187
          70.7568
          70.758
          70.758
          70.7568
          46.3187
          46.3187
          70.4537
          70.4548
          70.4544
          70.4523
          46.3187
          46.3187
          46.3187
          46.3187
          46.3187
          46.3187
          46.3187
          46.3187
          46.3187
          70.3754
          70.3762
          70.3766
          70.3765
          46.3187
          46.3187
          70.7217
          70.722
          70.722
          70.7217
          46.3187
          46.3187
          70.7593
          70.7596
          70.7596
          70.7593
          46.3187
          46.3187
          70.4563
          70.4564
          70.4561
          70.4554
          46.3187
          46.3187
          46.3187
          46.3187
          46.3187
          46.3187
          46.3187
          46.3187
          46.3187
          70.3783
          70.379
          70.3794
          70.3794
          46.3187
          46.3187
          70.7242
          70.7244
          70.7244
          70.7242
          46.3187
          46.3187
          70.7618
          70.762
          70.762
          70.7618
          46.3187
          46.3187
          70.4592
          70.4592
          70.4589
          70.4583
          46.3187
          46.3187
          46.3187
          46.3187
          46.3187
          46.3187
          46.3187
          46.3187
          46.3187
          70.3819
          70.3825
          70.3829
          70.3829
          46.3187
          46.3187
          70.7271
          70.7272
          70.7272
          70.7271
          46.3187
          46.3187
          70.7647
          70.7648
          70.7648
          70.7647
          46.3187
          46.3187
          70.4626
          70.4626
          70.4623
          70.4617
          46.3187
          46.3187
          46.3187
          46.3187
          46.3187
          46.3187
          46.3187
          46.3187
          46.3187
          70.386
          70.3867
          70.387
          70.3871
          46.3187
          46.3187
          70.7304
          70.7304
          70.7305
          70.7304
          46.3187
          46.3187
          70.768
          70.7681
          70.7681
          70.768
          46.3187
          46.3187
          70.4666
          70.4666
          70.4663
          70.4657
          46.3187
          46.3187
          46.3187
          46.3187
          46.3187
          46.3187
          46.3187
          46.3187
          46.3187
          70.3908
          70.3914
          70.3918
          70.3918
          46.3187
          46.3187
          70.734
          70.7341
          70.7341
          70.734
          46.3187
          46.3187
          70.7716
          70.7717
          70.7717
          70.7716
          46.3187
          46.3187
          70.4711
          70.4711
          70.4708
          70.4703
          46.3187
          46.3187
          46.3187
          46.3187
          46.3187
          46.3187
          46.3187
          46.3187
          46.3187
          70.3961
          70.3968
          70.3971
          70.3972
          46.3187
          46.3187
          70.738
          70.7381
          70.7381
          70.738
          46.3187
          46.3187
          70.7757
          70.7757
          70.7757
          70.7757
          46.3187
          46.3187
          70.4763
          70.4762
          70.476
          70.4754
          46.3187
          46.3187
          46.3187
          46.3187
          46.3187
          46.3187
          46.3187
          46.3187
          46.3187
          70.4021
          70.4027
          70.4031
          70.4031
          46.3187
          46.3187
          70.7424
          70.7425
          70.7425
          70.7425
          46.3187
          46.3187
          70.7801
          70.7802
          70.7802
          70.7801
          46.3187
          46.3187
          70.482
          70.4819
          70.4817
          70.4811
          46.3187
          46.3187
          46.3187
          46.3187
          46.3187
          46.3187
          46.3187
          46.3187
          46.3187
          70.4087
          70.4093
          70.4097
          70.4097
          46.3187
          46.3187
          70.7472
          70.7473
          70.7473
          70.7473
          46.3187
          46.3187
          70.7849
          70.785
          70.785
          70.7849
          46.3187
          46.3187
          70.4882
          70.4882
          70.4879
          70.4874
          46.3187
          46.3187
          46.3187
          46.3187
          46.3187
          46.3187
          46.3187
          46.3187
          46.3187
          70.4158
          70.4165
          70.4168
          70.4169
          46.3187
          46.3187
          70.7524
          70.7525
          70.7525
          70.7524
          46.3187
          46.3187
          70.7901
          70.7902
          70.7902
          70.7901
          46.3187
          46.3187
          70.495
          70.495
          70.4947
          70.4942
          46.3187
          46.3187
          46.3187
          46.3187
          46.3187
          46.3187
          46.3187
          46.3187
          46.3187
          70.4236
          70.4243
          70.4246
          70.4246
          46.3187
          46.3187
          70.758
          70.7581
          70.7581
          70.758
          46.3187
          46.3187
          70.7957
          70.7957
          70.7957
          70.7956
          46.3187
          46.3187
          70.5024
          70.5024
          70.5021
          70.5016
          46.3187
          46.3187
          46.3187
          46.3187
          46.3187
          46.3187
          46.3187
          46.3187
          46.3187
          70.432
          70.4326
          70.433
          70.433
          46.3187
          46.3187
          70.764
          70.764
          70.764
          70.764
          46.3187
          46.3187
          70.8016
          70.8017
          70.8017
          70.8016
          46.3187
          46.3187
          70.5103
          70.5103
          70.5101
          70.5095
          46.3187
          46.3187
          46.3187
          46.3187
          46.3187
          46.3187
          46.3187
          46.3187
          46.3187
          70.441
          70.4416
          70.442
          70.442
          46.3187
          46.3187
          70.7703
          70.7704
          70.7704
          70.7703
          46.3187
          46.3187
          70.808
          70.808
          70.808
          70.8079
          46.3187
          46.3187
          70.5188
          70.5188
          70.5186
          70.518
          46.3187
          46.3187
          46.3187
          46.3187
          46.3187
          46.3187
          46.3187
          46.3187
          46.3187
          70.4506
          70.4512
          70.4516
          70.4516
          46.3187
          46.3187
          70.777
          70.7771
          70.7771
          70.777
          46.3187
          46.3187
          70.8147
          70.8148
          70.8148
          70.8147
          46.3187
          46.3187
          70.5279
          70.5279
          70.5276
          70.5271
          46.3187
          46.3187
          46.3187
          46.3187
          46.3187
          46.3187
          46.3187
          46.3187
          46.3187
          70.4608
          70.4614
          70.4618
          70.4618
          46.3187
          46.3187
          70.7841
          70.7842
          70.7842
          70.7841
          46.3187
          46.3187
          70.8218
          70.8219
          70.8219
          70.8218
          46.3187
          46.3187
          70.5375
          70.5375
          70.5372
          70.5367
          46.3187
          46.3187
          46.3187
          46.3187
          46.3187
          46.3187
          46.3187
          46.3187
          46.3187
          70.4716
          70.4722
          70.4726
          70.4726
          46.3187
          46.3187
          70.7916
          70.7917
          70.7917
          70.7916
          46.3187
          46.3187
          70.8293
          70.8294
          70.8294
          70.8293
          46.3187
          46.3187
          70.5477
          70.5477
          70.5474
          70.5469
          46.3187
          46.3187
          46.3187
          46.3187
          46.3187
          46.3187
          46.3187
          46.3187
          46.3187
          70.483
          70.4836
          70.484
          70.484
          46.3187
          46.3187
          70.7995
          70.7996
          70.7996
          70.7995
          46.3187
          46.3187
          70.8372
          70.8373
          70.8373
          70.8372
          46.3187
          46.3187
          70.5585
          70.5584
          70.5582
          70.5576
          46.3187
          46.3187
          46.3187
          46.3187
          46.3187
          46.3187
          46.3187
          46.3187
          46.3187
          70.495
          70.4956
          70.496
          70.496
          46.3187
          46.3187
          70.8077
          70.8078
          70.8078
          70.8078
          46.3187
          46.3187
          70.8455
          70.8455
          70.8455
          70.8454
          46.3187
          46.3187
          70.5698
          70.5697
          70.5695
          70.5689
          46.3187
          46.3187
          46.3187
          46.3187
          46.3187
          46.3187
          46.3187
          46.3187
          46.3187
          70.5076
          70.5082
          70.5086
          70.5087
          46.3187
          46.3187
          70.8164
          70.8165
          70.8165
          70.8164
          46.3187
          46.3187
          70.8541
          70.8542
          70.8542
          70.8541
          46.3187
          46.3187
          70.5816
          70.5816
          70.5813
          70.5808
          46.3187
          46.3187
          46.3187
          46.3187
          46.3187
          46.3187
          46.3187
          46.3187
          46.3187
          70.5208
          70.5214
          70.5219
          70.522
          46.3187
          46.3187
          70.8253
          70.8255
          70.8256
          70.8255
          46.3187
          46.3187
          70.8632
          70.8633
          70.8632
          70.8631
          46.3187
          46.3187
          70.5941
          70.5941
          70.5937
          70.5931
          46.3187
          46.3187
          46.3187
          46.3187
          46.3187
          46.3187
          46.3187
          46.3187
          46.3187
          70.5344
          70.5351
          70.5358
          70.536
          46.3187
          46.3187
          70.8345
          70.8348
          70.8351
          70.8352
          46.3187
          46.3187
          70.8728
          70.8727
          70.8725
          70.8724
          46.3187
          46.3187
          70.6073
          70.6071
          70.6066
          70.6059
          46.3187
          46.3187
          46.3187
          46.3187
          46.3187
          46.3187
          46.3187
          46.3187
          46.3187
          70.548
          70.5491
          70.5506
          70.5512
          46.3187
          46.3187
          70.8437
          70.8442
          70.8452
          70.8456
          46.3187
          46.3187
          70.883
          70.8828
          70.8821
          70.8817
          46.3187
          46.3187
          70.6216
          70.621
          70.6197
          70.6187
          46.3187
          46.3187
          46.3187
          46.3187
          46.3187
          46.3187
          46.3187
          46.3187
          46.3187
          70.5605
          70.5629
          70.5667
          70.5687
          46.3187
          46.3187
          70.8517
          70.8534
          70.8564
          70.8579
          46.3187
          46.3187
          70.8947
          70.8936
          70.8916
          70.8904
          46.3187
          46.3187
          70.6381
          70.6362
          70.6325
          70.6302
          46.3187
          46.3187
          46.3187
          46.3187
          46.3187
          46.3187
          46.3187
          46.3187
          46.3187
          70.5687
          70.5737
          70.5868
          70.5915
          46.3187
          46.3187
          70.8561
          70.8601
          70.8708
          70.8747
          46.3187
          46.3187
          70.9095
          70.9069
          70.8995
          70.8968
          46.3187
          46.3187
          70.66
          70.6553
          70.6423
          70.6374
          46.3187
          46.3187
          46.3187
          46.3187
          46.3187
          70.3552
          70.4217
          70.4683
          70.5106
          70.5566
          70.5812
          70.6068
          70.6441
          70.7213
          70.7794
          70.839
          70.8663
          70.8877
          70.911
          70.9457
          70.9533
          70.9367
          70.9223
          70.9078
          70.8875
          70.8387
          70.7854
          70.711
          70.6744
          70.649
          70.6242
          70.5778
          70.5368
          70.4948
          70.4482
          70.3817
          70.3822
          70.428
          70.4707
          70.5113
          70.5493
          70.5856
          70.6228
          70.6693
          70.7232
          70.7816
          70.8332
          70.8759
          70.9084
          70.9352
          70.9542
          70.9617
          70.9566
          70.9421
          70.9205
          70.8875
          70.8429
          70.7885
          70.7358
          70.6899
          70.6528
          70.6163
          70.5781
          70.5377
          70.4973
          70.4547
          70.4089
          70.4124
          70.4404
          70.4744
          70.5116
          70.5498
          70.5888
          70.6307
          70.6772
          70.7291
          70.7848
          70.8436
          70.8958
          70.9344
          70.9619
          70.9795
          70.9864
          70.9826
          70.9683
          70.9433
          70.9061
          70.854
          70.7966
          70.7442
          70.6976
          70.6556
          70.6163
          70.5774
          70.5388
          70.5012
          70.4671
          70.4391
          70.4346
          70.4455
          70.4762
          70.5121
          70.5502
          70.5901
          70.6328
          70.6796
          70.731
          70.787
          70.8508
          70.9091
          70.9494
          70.9776
          70.9949
          71.0018
          70.9981
          70.9836
          70.9578
          70.9189
          70.8617
          70.7997
          70.7469
          70.6997
          70.6568
          70.6165
          70.5775
          70.5393
          70.5031
          70.4723
          70.4613
        </DataArray>
      </PointData>
      <CellData>
      </CellData>
      <Points>
        <DataArray type="Float32" NumberOfComponents="3" format="ascii">
          0.039 0.00195 0.0
          0.0377 0.00195 0.0
          0.0364 0.00195 0.0
          0.0351 0.00195 0.0
          0.0338 0.00195 0.0
          0.0325 0.00195 0.0
          0.0312 0.00195 0.0
          0.0299 0.00195 0.0
          0.0286 0.00195 0.0
          0.0273 0.00195 0.0
          0.026 0.00195 0.0
          0.0247 0.00195 0.0
          0.0234 0.00195 0.0
          0.0221 0.00195 0.0
          0.0208 0.00195 0.0
          0.0195 0.00195 0.0
          0.0182 0.00195 0.0
          0.0169 0.00195 0.0
          0.0156 0.00195 0.0
          0.0143 0.00195 0.0
          0.013 0.00195 0.0
          0.0117 0.00195 0.0
          0.0104 0.00195 0.0
          0.0091 0.00195 0.0
          0.0078 0.00195 0.0
          0.0065 0.00195 0.0
          0.0052 0.00195 0.0
          0.0039 0.00195 0.0
          0.0026 0.00195 0.0
          0.0013 0.00195 0.0
          0 0.00195 0.0
          0.039 0.00065 0.0
          0.0377 0.00065 0.0
          0.0364 0.00065 0.0
          0.0351 0.00065 0.0
          0.0338 0.00065 0.0
          0.0325 0.00065 0.0
          0.0312 0.00065 0.0
          0.0299 0.00065 0.0
          0.0286 0.00065 0.0
          0.0273 0.00065 0.0
          0.026 0.00065 0.0
          0.0247 0.00065 0.0
          0.0234 0.00065 0.0
          0.0221 0.00065 0.0
          0.0208 0.00065 0.0
          0.0195 0.00065 0.0
          0.0182 0.00065 0.0
          0.0169 0.00065 0.0
          0.0156 0.00065 0.0
          0.0143 0.00065 0.0
          0.013 0.00065 0.0
          0.0117 0.00065 0.0
          0.0104 0.00065 0.0
          0.0091 0.00065 0.0
          0.0078 0.00065 0.0
          0.0065 0.00065 0.0
          0.0052 0.00065 0.0
          0.0039 0.00065 0.0
          0.0026 0.00065 0.0
          0.0013 0.00065 0.0
          0 0.00065 0.0
          0.039 -0.00065 0.0
          0.0377 -0.00065 0.0
          0.0364 -0.00065 0.0
          0.0351 -0.00065 0.0
          0.0338 -0.00065 0.0
          0.0325 -0.00065 0.0
          0.0312 -0.00065 0.0
          0.0299 -0.00065 0.0
          0.0286 -0.00065 0.0
          0.0273 -0.00065 0.0
          0.026 -0.00065 0.0
          0.0247 -0.00065 0.0
          0.0234 -0.00065 0.0
          0.0221 -0.00065 0.0
          0.0208 -0.00065 0.0
          0.0195 -0.00065 0.0
          0.0182 -0.00065 0.0
          0.0169 -0.00065 0.0
          0.0156 -0.00065 0.0
          0.0143 -0.00065 0.0
          0.013 -0.00065 0.0
          0.0117 -0.00065 0.0
          0.0104 -0.00065 0.0
          0.0091 -0.00065 0.0
          0.0078 -0.00065 0.0
          0.0065 -0.00065 0.0
          0.0052 -0.00065 0.0
          0.0039 -0.00065 0.0
          0.0026 -0.00065 0.0
          0.0013 -0.00065 0.0
          0 -0.00065 0.0
          0.039 -0.00195 0.0
          0.0377 -0.00195 0.0
          0.0364 -0.00195 0.0
          0.0351 -0.00195 0.0
          0.0338 -0.00195 0.0
          0.0325 -0.00195 0.0
          0.0312 -0.00195 0.0
          0.0299 -0.00195 0.0
          0.0286 -0.00195 0.0
          0.0273 -0.00195 0.0
          0.026 -0.00195 0.0
          0.0247 -0.00195 0.0
          0.0234 -0.00195 0.0
          0.0221 -0.00195 0.0
          0.0208 -0.00195 0.0
          0.0195 -0.00195 0.0
          0.0182 -0.00195 0.0
          0.0169 -0.00195 0.0
          0.0156 -0.00195 0.0
          0.0143 -0.00195 0.0
          0.013 -0.00195 0.0
          0.0117 -0.00195 0.0
          0.0104 -0.00195 0.0
          0.0091 -0.00195 0.0
          0.0078 -0.00195 0.0
          0.0065 -0.00195 0.0
          0.0052 -0.00195 0.0
          0.0039 -0.00195 0.0
          0.0026 -0.00195 0.0
          0.0013 -0.00195 0.0
          0 -0.00195 0.0
          0.039 -0.00325 0.0
          0.0377 -0.00325 0.0
          0.0364 -0.00325 0.0
          0.0351 -0.00325 0.0
          0.0338 -0.00325 0.0
          0.0325 -0.00325 0.0
          0.0312 -0.00325 0.0
          0.0299 -0.00325 0.0
          0.0286 -0.00325 0.0
          0.0273 -0.00325 0.0
          0.026 -0.00325 0.0
          0.0247 -0.00325 0.0
          0.0234 -0.00325 0.0
          0.0221 -0.00325 0.0
          0.0208 -0.00325 0.0
          0.0195 -0.00325 0.0
          0.0182 -0.00325 0.0
          0.0169 -0.00325 0.0
          0.0156 -0.00325 0.0
          0.0143 -0.00325 0.0
          0.013 -0.00325 0.0
          0.0117 -0.00325 0.0
          0.0104 -0.00325 0.0
          0.0091 -0.00325 0.0
          0.0078 -0.00325 0.0
          0.0065 -0.00325 0.0
          0.0052 -0.00325 0.0
          0.0039 -0.00325 0.0
          0.0026 -0.00325 0.0
          0.0013 -0.00325 0.0
          0 -0.00325 0.0
          0.039 -0.00455 0.0
          0.0377 -0.00455 0.0
          0.0364 -0.00455 0.0
          0.0351 -0.00455 0.0
          0.0338 -0.00455 0.0
          0.0325 -0.00455 0.0
          0.0312 -0.00455 0.0
          0.0299 -0.00455 0.0
          0.0286 -0.00455 0.0
          0.0273 -0.00455 0.0
          0.026 -0.00455 0.0
          0.0247 -0.00455 0.0
          0.0234 -0.00455 0.0
          0.0221 -0.00455 0.0
          0.0208 -0.00455 0.0
          0.0195 -0.00455 0.0
          0.0182 -0.00455 0.0
          0.0169 -0.00455 0.0
          0.0156 -0.00455 0.0
          0.0143 -0.00455 0.0
          0.013 -0.00455 0.0
          0.0117 -0.00455 0.0
          0.0104 -0.00455 0.0
          0.0091 -0.00455 0.0
          0.0078 -0.00455 0.0
          0.0065 -0.00455 0.0
          0.0052 -0.00455 0.0
          0.0039 -0.00455 0.0
          0.0026 -0.00455 0.0
          0.0013 -0.00455 0.0
          0 -0.00455 0.0
          0.039 -0.00585 0.0
          0.0377 -0.00585 0.0
          0.0364 -0.00585 0.0
          0.0351 -0.00585 0.0
          0.0338 -0.00585 0.0
          0.0325 -0.00585 0.0
          0.0312 -0.00585 0.0
          0.0299 -0.00585 0.0
          0.0286 -0.00585 0.0
          0.0273 -0.00585 0.0
          0.026 -0.00585 0.0
          0.0247 -0.00585 0.0
          0.0234 -0.00585 0.0
          0.0221 -0.00585 0.0
          0.0208 -0.00585 0.0
          0.0195 -0.00585 0.0
          0.0182 -0.00585 0.0
          0.0169 -0.00585 0.0
          0.0156 -0.00585 0.0
          0.0143 -0.00585 0.0
          0.013 -0.00585 0.0
          0.0117 -0.00585 0.0
          0.0104 -0.00585 0.0
          0.0091 -0.00585 0.0
          0.0078 -0.00585 0.0
          0.0065 -0.00585 0.0
          0.0052 -0.00585 0.0
          0.0039 -0.00585 0.0
          0.0026 -0.00585 0.0
          0.0013 -0.00585 0.0
          0 -0.00585 0.0
          0.039 -0.00715 0.0
          0.0377 -0.00715 0.0
          0.0364 -0.00715 0.0
          0.0351 -0.00715 0.0
          0.0338 -0.00715 0.0
          0.0325 -0.00715 0.0
          0.0312 -0.00715 0.0
          0.0299 -0.00715 0.0
          0.0286 -0.00715 0.0
          0.0273 -0.00715 0.0
          0.026 -0.00715 0.0
          0.0247 -0.00715 0.0
          0.0234 -0.00715 0.0
          0.0221 -0.00715 0.0
          0.0208 -0.00715 0.0
          0.0195 -0.00715 0.0
          0.0182 -0.00715 0.0
          0.0169 -0.00715 0.0
          0.0156 -0.00715 0.0
          0.0143 -0.00715 0.0
          0.013 -0.00715 0.0
          0.0117 -0.00715 0.0
          0.0104 -0.00715 0.0
          0.0091 -0.00715 0.0
          0.0078 -0.00715 0.0
          0.0065 -0.00715 0.0
          0.0052 -0.00715 0.0
          0.0039 -0.00715 0.0
          0.0026 -0.00715 0.0
          0.0013 -0.00715 0.0
          0 -0.00715 0.0
          0.039 -0.00845 0.0
          0.0377 -0.00845 0.0
          0.0364 -0.00845 0.0
          0.0351 -0.00845 0.0
          0.0338 -0.00845 0.0
          0.0325 -0.00845 0.0
          0.0312 -0.00845 0.0
          0.0299 -0.00845 0.0
          0.0286 -0.00845 0.0
          0.0273 -0.00845 0.0
          0.026 -0.00845 0.0
          0.0247 -0.00845 0.0
          0.0234 -0.00845 0.0
          0.0221 -0.00845 0.0
          0.0208 -0.00845 0.0
          0.0195 -0.00845 0.0
          0.0182 -0.00845 0.0
          0.0169 -0.00845 0.0
          0.0156 -0.00845 0.0
          0.0143 -0.00845 0.0
          0.013 -0.00845 0.0
          0.0117 -0.00845 0.0
          0.0104 -0.00845 0.0
          0.0091 -0.00845 0.0
          0.0078 -0.00845 0.0
          0.0065 -0.00845 0.0
          0.0052 -0.00845 0.0
          0.0039 -0.00845 0.0
          0.0026 -0.00845 0.0
          0.0013 -0.00845 0.0
          0 -0.00845 0.0
          0.039 -0.00975 0.0
          0.0377 -0.00975 0.0
          0.0364 -0.00975 0.0
          0.0351 -0.00975 0.0
          0.0338 -0.00975 0.0
          0.0325 -0.00975 0.0
          0.0312 -0.00975 0.0
          0.0299 -0.00975 0.0
          0.0286 -0.00975 0.0
          0.0273 -0.00975 0.0
          0.026 -0.00975 0.0
          0.0247 -0.00975 0.0
          0.0234 -0.00975 0.0
          0.0221 -0.00975 0.0
          0.0208 -0.00975 0.0
          0.0195 -0.00975 0.0
          0.0182 -0.00975 0.0
          0.0169 -0.00975 0.0
          0.0156 -0.00975 0.0
          0.0143 -0.00975 0.0
          0.013 -0.00975 0.0
          0.0117 -0.00975 0.0
          0.0104 -0.00975 0.0
          0.0091 -0.00975 0.0
          0.0078 -0.00975 0.0
          0.0065 -0.00975 0.0
          0.0052 -0.00975 0.0
          0.0039 -0.00975 0.0
          0.0026 -0.00975 0.0
          0.0013 -0.00975 0.0
          0 -0.00975 0.0
          0.039 -0.01105 0.0
          0.0377 -0.01105 0.0
          0.0364 -0.01105 0.0
          0.0351 -0.01105 0.0
          0.0338 -0.01105 0.0
          0.0325 -0.01105 0.0
          0.0312 -0.01105 0.0
          0.0299 -0.01105 0.0
          0.0286 -0.01105 0.0
          0.0273 -0.01105 0.0
          0.026 -0.01105 0.0
          0.0247 -0.01105 0.0
          0.0234 -0.01105 0.0
          0.0221 -0.01105 0.0
          0.0208 -0.01105 0.0
          0.0195 -0.01105 0.0
          0.0182 -0.01105 0.0
          0.0169 -0.01105 0.0
          0.0156 -0.01105 0.0
          0.0143 -0.01105 0.0
          0.013 -0.01105 0.0
          0.0117 -0.01105 0.0
          0.0104 -0.01105 0.0
          0.0091 -0.01105 0.0
          0.0078 -0.01105 0.0
          0.0065 -0.01105 0.0
          0.0052 -0.01105 0.0
          0.0039 -0.01105 0.0
          0.0026 -0.01105 0.0
          0.0013 -0.01105 0.0
          0 -0.01105 0.0
          0.039 -0.01235 0.0
          0.0377 -0.01235 0.0
          0.0364 -0.01235 0.0
          0.0351 -0.01235 0.0
          0.0338 -0.01235 0.0
          0.0325 -0.01235 0.0
          0.0312 -0.01235 0.0
          0.0299 -0.01235 0.0
          0.0286 -0.01235 0.0
          0.0273 -0.01235 0.0
          0.026 -0.01235 0.0
          0.0247 -0.01235 0.0
          0.0234 -0.01235 0.0
          0.0221 -0.01235 0.0
          0.0208 -0.01235 0.0
          0.0195 -0.01235 0.0
          0.0182 -0.01235 0.0
          0.0169 -0.01235 0.0
          0.0156 -0.01235 0.0
          0.0143 -0.01235 0.0
          0.013 -0.01235 0.0
          0.0117 -0.01235 0.0
          0.0104 -0.01235 0.0
          0.0091 -0.01235 0.0
          0.0078 -0.01235 0.0
          0.0065 -0.01235 0.0
          0.0052 -0.01235 0.0
          0.0039 -0.01235 0.0
          0.0026 -0.01235 0.0
          0.0013 -0.01235 0.0
          0 -0.01235 0.0
          0.039 -0.01365 0.0
          0.0377 -0.01365 0.0
          0.0364 -0.01365 0.0
          0.0351 -0.01365 0.0
          0.0338 -0.01365 0.0
          0.0325 -0.01365 0.0
          0.0312 -0.01365 0.0
          0.0299 -0.01365 0.0
          0.0286 -0.01365 0.0
          0.0273 -0.01365 0.0
          0.026 -0.01365 0.0
          0.0247 -0.01365 0.0
          0.0234 -0.01365 0.0
          0.0221 -0.01365 0.0
          0.0208 -0.01365 0.0
          0.0195 -0.01365 0.0
          0.0182 -0.01365 0.0
          0.0169 -0.01365 0.0
          0.0156 -0.01365 0.0
          0.0143 -0.01365 0.0
          0.013 -0.01365 0.0
          0.0117 -0.01365 0.0
          0.0104 -0.01365 0.0
          0.0091 -0.01365 0.0
          0.0078 -0.01365 0.0
          0.0065 -0.01365 0.0
          0.0052 -0.01365 0.0
          0.0039 -0.01365 0.0
          0.0026 -0.01365 0.0
          0.0013 -0.01365 0.0
          0 -0.01365 0.0
          0.039 -0.01495 0.0
          0.0377 -0.01495 0.0
          0.0364 -0.01495 0.0
          0.0351 -0.01495 0.0
          0.0338 -0.01495 0.0
          0.0325 -0.01495 0.0
          0.0312 -0.01495 0.0
          0.0299 -0.01495 0.0
          0.0286 -0.01495 0.0
          0.0273 -0.01495 0.0
          0.026 -0.01495 0.0
          0.0247 -0.01495 0.0
          0.0234 -0.01495 0.0