<?xml version="1.0"?>
<VTKFile type="UnstructuredGrid" version="0.1" byte_order="LittleEndian">
  <UnstructuredGrid>
    <Piece NumberOfPoints="961" NumberOfCells="900">
      <PointData Scalars="Temperature">
        <DataArray type="Float32" Name="Temperature" format="ascii">
          21.0358
          22.5761
          24.1704
          25.7602
          27.0948
          27.9726
          28.3086
          28.2871
          28.1745
          28.1907
          28.3486
          28.5032
          28.5049
          28.3549
          28.2048
          28.2058
          28.3575
          28.5089
          28.5084
          28.3556
          28.2003
          28.1885
          28.3081
          28.3473
          28.0537
          27.264
          26.0737
          24.6878
          23.3543
          22.1414
          21.028
          22.5291
          84.4924
          150.902
          217.5
          275.166
          311.139
          323.814
          320.095
          313.689
          314.253
          322.339
          330.288
          330.352
          322.573
          314.795
          314.835
          322.684
          330.514
          330.497
          322.613
          314.639
          314.246
          320.924
          325.217
          314.144
          281.625
          229.943
          171.724
          115.988
          67.2397
          22.1122
          23.8964
          141.567
          269.335
          421.961
          545.833
          624.355
          636.9
          613.798
          588.131
          588.925
          616.573
          643.999
          644.062
          616.906
          589.77
          589.868
          617.151
          644.4
          644.383
          617.062
          589.62
          589.173
          615.247
          639.001
          628.042
          555.923
          443.841
          308.633
          201.434
          108.798
          23.1128
          25.03
          188.664
          367.825
          582.053
          967.52
          967.563
          967.574
          967.555
          793.303
          794.085
          969.696
          969.718
          969.718
          969.697
          795.014
          795.159
          970.225
          970.247
          970.247
          970.225
          794.986
          794.67
          969.691
          969.71
          969.701
          969.661
          611.016
          422.659
          272.776
          143.858
          23.9596
          25.8526
          222.43
          433.566
          683.42
          967.608
          967.624
          967.633
          967.632
          913.245
          913.955
          969.773
          969.777
          969.777
          969.773
          914.855
          915.032
          970.302
          970.305
          970.305
          970.302
          914.961
          914.787
          969.767
          969.768
          969.76
          969.746
          717.517
          500.796
          325.699
          170.611
          24.612
          26.3681
          242.824
          469.535
          712.245
          967.745
          967.759
          967.767
          967.768
          950.986
          951.696
          969.907
          969.908
          969.909
          969.907
          952.58
          952.756
          970.435
          970.436
          970.436
          970.435
          952.743
          952.569
          969.898
          969.897
          969.89
          969.879
          750.979
          546.146
          360.104
          188.978
          25.0666
          26.6441
          253.394
          485.054
          723.852
          967.946
          967.959
          967.967
          967.969
          962.988
          963.698
          970.106
          970.107
          970.107
          970.106
          964.576
          964.751
          970.632
          970.633
          970.633
          970.632
          964.755
          964.579
          970.092
          970.09
          970.083
          970.073
          766.044
          568.411
          380.187
          200.379
          25.3544
          26.7761
          258.246
          491.965
          728.893
          968.212
          968.224
          968.232
          968.234
          966.958
          967.667
          970.369
          970.37
          970.37
          970.37
          968.542
          968.717
          970.893
          970.894
          970.894
          970.893
          968.724
          968.546
          970.346
          970.344
          970.338
          970.328
          773.479
          579.855
          391.09
          206.928
          25.5224
          26.8354
          260.454
          495.105
          731.243
          968.54
          968.553
          968.56
          968.563
          968.452
          969.16
          970.696
          970.696
          970.697
          970.696
          970.033
          970.207
          971.218
          971.218
          971.218
          971.218
          970.212
          970.03
          970.661
          970.659
          970.653
          970.643
          777.393
          585.88
          396.955
          210.523
          25.6157
          26.8633
          261.49
          496.61
          732.46
          968.932
          968.944
          968.952
          968.954
          969.211
          969.919
          971.086
          971.086
          971.086
          971.086
          970.79
          970.963
          971.604
          971.604
          971.604
          971.604
          970.963
          970.778
          971.036
          971.034
          971.028
          971.018
          779.585
          589.148
          400.133
          212.482
          25.6665
          26.8773
          262.019
          497.416
          733.208
          969.385
          969.398
          969.405
          969.407
          969.783
          970.491
          971.538
          971.538
          971.538
          971.538
          971.36
          971.532
          972.052
          972.052
          972.052
          972.052
          971.526
          971.336
          971.47
          971.468
          971.462
          971.452
          780.921
          591.006
          401.905
          213.568
          25.6947
          26.8855
          262.334
          497.932
          733.776
          969.9
          969.912
          969.919
          969.922
          970.339
          971.046
          972.051
          972.051
          972.051
          972.051
          971.914
          972.084
          972.56
          972.56
          972.56
          972.56
          972.07
          971.875
          971.962
          971.96
          971.954
          971.944
          781.839
          592.148
          402.951
          214.198
          25.711
          26.8914
          262.564
          498.338
          734.292
          970.474
          970.486
          970.494
          970.496
          970.93
          971.636
          972.624
          972.624
          972.624
          972.624
          972.503
          972.671
          973.128
          973.128
          973.128
          973.128
          972.649
          972.447
          972.51
          972.509
          972.503
          972.493
          782.565
          592.94
          403.634
          214.599
          25.7212
          26.8964
          262.767
          498.716
          734.81
          971.107
          971.119
          971.127
          971.129
          971.573
          972.279
          973.255
          973.255
          973.255
          973.255
          973.143
          973.309
          973.753
          973.754
          973.754
          973.753
          973.278
          973.069
          973.115
          973.113
          973.107
          973.097
          783.217
          593.575
          404.149
          214.892
          25.7287
          26.9014
          262.969
          499.1
          735.356
          971.797
          971.809
          971.817
          971.819
          972.272
          972.977
          973.944
          973.944
          973.944
          973.944
          973.838
          974.002
          974.435
          974.435
          974.435
          974.435
          973.961
          973.744
          973.774
          973.772
          973.766
          973.756
          783.867
          594.166
          404.608
          215.147
          25.7351
          26.9068
          263.184
          499.511
          735.943
          972.543
          972.555
          972.562
          972.565
          973.025
          973.73
          974.687
          974.687
          974.688
          974.688
          974.588
          974.75
          975.172
          975.172
          975.172
          975.172
          974.698
          974.473
          974.485
          974.483
          974.477
          974.467
          784.56
          594.791
          405.092
          215.415
          25.7419
          26.9125
          263.426
          499.968
          736.584
          973.343
          973.355
          973.362
          973.365
          973.833
          974.537
          975.485
          975.485
          975.485
          975.485
          975.393
          975.552
          975.962
          975.962
          975.962
          975.962
          975.488
          975.253
          975.248
          975.246
          975.24
          975.23
          785.345
          595.53
          405.678
          215.745
          25.75
          26.9209
          263.719
          500.504
          737.302
          974.195
          974.207
          974.214
          974.217
          974.694
          975.397
          976.334
          976.334
          976.334
          976.334
          976.249
          976.406
          976.803
          976.803
          976.803
          976.803
          976.329
          976.085
          976.06
          976.058
          976.052
          976.042
          786.291
          596.495
          406.482
          216.209
          25.7628
          26.9267
          264.113
          501.186
          738.142
          975.097
          975.11
          975.117
          975.12
          975.606
          976.307
          977.232
          977.232
          977.232
          977.232
          977.155
          977.309
          977.693
          977.693
          977.693
          977.693
          977.219
          976.965
          976.92
          976.918
          976.912
          976.902
          787.519
          597.885
          407.704
          216.934
          25.7772
          26.9595
          264.713
          502.172
          739.215
          976.048
          976.06
          976.068
          976.07
          976.566
          977.266
          978.178
          978.178
          978.178
          978.178
          978.11
          978.26
          978.63
          978.63
          978.63
          978.63
          978.156
          977.891
          977.825
          977.823
          977.817
          977.808
          789.256
          600.069
          409.718
          218.147
          25.8258
          26.9192
          265.804
          503.809
          740.77
          977.045
          977.058
          977.065
          977.068
          977.573
          978.271
          979.169
          979.17
          979.17
          979.17
          979.11
          979.257
          979.612
          979.612
          979.611
          979.611
          979.139
          978.862
          978.774
          978.772
          978.766
          978.757
          791.927
          603.747
          413.226
          220.328
          25.8133
          27.2513
          267.844
          506.94
          743.365
          978.086
          978.099
          978.106
          978.109
          978.625
          979.32
          980.203
          980.203
          980.204
          980.204
          980.154
          980.298
          980.635
          980.635
          980.635
          980.635
          980.164
          979.877
          979.764
          979.762
          979.757
          979.747
          796.336
          610.233
          419.621
          224.219
          26.1924
          26.2689
          272.663
          513.268
          748.327
          979.168
          979.181
          979.189
          979.192
          979.721
          980.413
          981.277
          981.278
          981.278
          981.278
          981.241
          981.382
          981.699
          981.699
          981.699
          981.699
          981.232
          980.933
          980.794
          980.792
          980.786
          980.776
          803.944
          622.058
          431.391
          232.028
          25.2837
          30.9663
          281.355
          527.565
          758.394
          980.288
          980.301
          980.312
          980.317
          980.866
          981.553
          982.388
          982.389
          982.39
          982.391
          982.374
          982.51
          982.801
          982.8
          982.8
          982.8
          982.345
          982.035
          981.861
          981.858
          981.851
          981.841
          817.367
          643.665
          454.268
          245.278
          30.0984
          13.8387
          309.277
          557.146
          780.383
          981.438
          981.455
          981.475
          981.484
          982.074
          982.751
          983.532
          983.534
          983.539
          983.541
          983.565
          983.696
          983.937
          983.936
          983.935
          983.934
          983.515
          983.196
          982.967
          982.961
          982.947
          982.935
          840.36
          683.793
          496.473
          279.691
          13.1119
          86.6025
          344.434
          632.449
          823.581
          982.599
          982.631
          982.68
          982.706
          983.397
          984.051
          984.7
          984.708
          984.723
          984.731
          984.858
          984.982
          985.107
          985.105
          985.101
          985.098
          984.783
          984.463
          984.117
          984.1
          984.068
          984.046
          876.59
          753.046
          588.892
          323.368
          86.1539
          -194.719
          573.77
          777.249
          894.02
          983.732
          983.794
          983.958
          984.017
          984.999
          985.574
          985.879
          985.897
          985.95
          985.969
          986.391
          986.498
          986.313
          986.307
          986.291
          986.285
          986.273
          985.982
          985.334
          985.295
          985.187
          985.146
          926.722
          857.039
          754.797
          563.14
          -195.201
          978.854
          981.909
          983.551
          984.546
          984.793
          984.858
          985.173
          985.877
          987.204
          987.587
          987.211
          986.993
          987.095
          987.563
          988.454
          988.523
          987.803
          987.422
          987.391
          987.695
          988.255
          988.049
          986.988
          986.423
          986.214
          986.271
          986.307
          985.664
          984.57
          982.879
          979.808
          980.324
          982.385
          983.859
          984.803
          985.396
          985.816
          986.266
          986.862
          987.439
          987.812
          987.922
          987.957
          988.103
          988.398
          988.67
          988.737
          988.587
          988.402
          988.356
          988.439
          988.471
          988.269
          987.864
          987.43
          987.131
          986.889
          986.525
          985.884
          984.855
          983.341
          981.265
          982.271
          983.445
          984.508
          985.393
          986.067
          986.606
          987.099
          987.58
          988.014
          988.34
          988.551
          988.702
          988.862
          989.042
          989.19
          989.248
          989.213
          989.142
          989.092
          989.06
          988.982
          988.803
          988.523
          988.198
          987.868
          987.507
          987.036
          986.367
          985.456
          984.367
          983.183
          983.562
          983.892
          984.803
          985.643
          986.331
          986.895
          987.392
          987.847
          988.247
          988.563
          988.792
          988.969
          989.13
          989.284
          989.404
          989.46
          989.449
          989.403
          989.353
          989.296
          989.196
          989.021
          988.77
          988.469
          988.135
          987.747
          987.249
          986.579
          985.727
          984.799
          984.462
        </DataArray>
      </PointData>
      <CellData>
      </CellData>
      <Points>
        <DataArray type="Float32" NumberOfComponents="3" format="ascii">
          0.1 0.005 0.0
          0.0966667 0.005 0.0
          0.0933333 0.005 0.0
          0.09 0.005 0.0
          0.0866667 0.005 0.0
          0.0833333 0.005 0.0
          0.08 0.005 0.0
          0.0766667 0.005 0.0
          0.0733333 0.005 0.0
          0.07 0.005 0.0
          0.0666667 0.005 0.0
          0.0633333 0.005 0.0
          0.06 0.005 0.0
          0.0566667 0.005 0.0
          0.0533333 0.005 0.0
          0.05 0.005 0.0
          0.0466667 0.005 0.0
          0.0433333 0.005 0.0
          0.04 0.005 0.0
          0.0366667 0.005 0.0
          0.0333333 0.005 0.0
          0.03 0.005 0.0
          0.0266667 0.005 0.0
          0.0233333 0.005 0.0
          0.02 0.005 0.0
          0.0166667 0.005 0.0
          0.0133333 0.005 0.0
          0.01 0.005 0.0
          0.00666667 0.005 0.0
          0.00333333 0.005 0.0
          0 0.005 0.0
          0.1 0.00166667 0.0
          0.0966667 0.00166667 0.0
          0.0933333 0.00166667 0.0
          0.09 0.00166667 0.0
          0.0866667 0.00166667 0.0
          0.0833333 0.00166667 0.0
          0.08 0.00166667 0.0
          0.0766667 0.00166667 0.0
          0.0733333 0.00166667 0.0
          0.07 0.00166667 0.0
          0.0666667 0.00166667 0.0
          0.0633333 0.00166667 0.0
          0.06 0.00166667 0.0
          0.0566667 0.00166667 0.0
          0.0533333 0.00166667 0.0
          0.05 0.00166667 0.0
          0.0466667 0.00166667 0.0
          0.0433333 0.00166667 0.0
          0.04 0.00166667 0.0
          0.0366667 0.00166667 0.0
          0.0333333 0.00166667 0.0
          0.03 0.00166667 0.0
          0.0266667 0.00166667 0.0
          0.0233333 0.00166667 0.0
          0.02 0.00166667 0.0
          0.0166667 0.00166667 0.0
          0.0133333 0.00166667 0.0
          0.01 0.00166667 0.0
          0.00666667 0.00166667 0.0
          0.00333333 0.00166667 0.0
          0 0.00166667 0.0
          0.1 -0.00166667 0.0
          0.0966667 -0.00166667 0.0
          0.0933333 -0.00166667 0.0
          0.09 -0.00166667 0.0
          0.0866667 -0.00166667 0.0
          0.0833333 -0.00166667 0.0
          0.08 -0.00166667 0.0
          0.0766667 -0.00166667 0.0
          0.0733333 -0.00166667 0.0
          0.07 -0.00166667 0.0
          0.0666667 -0.00166667 0.0
          0.0633333 -0.00166667 0.0
          0.06 -0.00166667 0.0
          0.0566667 -0.00166667 0.0
          0.0533333 -0.00166667 0.0
          0.05 -0.00166667 0.0
          0.0466667 -0.00166667 0.0
          0.0433333 -0.00166667 0.0
          0.04 -0.00166667 0.0
          0.0366667 -0.00166667 0.0
          0.0333333 -0.00166667 0.0
          0.03 -0.00166667 0.0
          0.0266667 -0.00166667 0.0
          0.0233333 -0.00166667 0.0
          0.02 -0.00166667 0.0
          0.0166667 -0.00166667 0.0
          0.0133333 -0.00166667 0.0
          0.01 -0.00166667 0.0
          0.00666667 -0.00166667 0.0
          0.00333333 -0.00166667 0.0
          0 -0.00166667 0.0
          0.1 -0.005 0.0
          0.0966667 -0.005 0.0
          0.0933333 -0.005 0.0
          0.09 -0.005 0.0
          0.0866667 -0.005 0.0
          0.0833333 -0.005 0.0
          0.08 -0.005 0.0
          0.0766667 -0.005 0.0
          0.0733333 -0.005 0.0
          0.07 -0.005 0.0
          0.0666667 -0.005 0.0
          0.0633333 -0.005 0.0
          0.06 -0.005 0.0
          0.0566667 -0.005 0.0
          0.0533333 -0.005 0.0
          0.05 -0.005 0.0
          0.0466667 -0.005 0.0
          0.0433333 -0.005 0.0
          0.04 -0.005 0.0
          0.0366667 -0.005 0.0
          0.0333333 -0.005 0.0
          0.03 -0.005 0.0
          0.0266667 -0.005 0.0
          0.0233333 -0.005 0.0
          0.02 -0.005 0.0
          0.0166667 -0.005 0.0
          0.0133333 -0.005 0.0
          0.01 -0.005 0.0
          0.00666667 -0.005 0.0
          0.00333333 -0.005 0.0
          0 -0.005 0.0
          0.1 -0.00833333 0.0
          0.0966667 -0.00833333 0.0
          0.0933333 -0.00833333 0.0
          0.09 -0.00833333 0.0
          0.0866667 -0.00833333 0.0
          0.0833333 -0.00833333 0.0
          0.08 -0.00833333 0.0
          0.0766667 -0.00833333 0.0
          0.0733333 -0.00833333 0.0
          0.07 -0.00833333 0.0
          0.0666667 -0.00833333 0.0
          0.0633333 -0.00833333 0.0
          0.06 -0.00833333 0.0
          0.0566667 -0.00833333 0.0
          0.0533333 -0.00833333 0.0
          0.05 -0.00833333 0.0
          0.0466667 -0.00833333 0.0
          0.0433333 -0.00833333 0.0
          0.04 -0.00833333 0.0
          0.0366667 -0.00833333 0.0
          0.0333333 -0.00833333 0.0
          0.03 -0.00833333 0.0
          0.0266667 -0.00833333 0.0
          0.0233333 -0.00833333 0.0
          0.02 -0.00833333 0.0
          0.0166667 -0.00833333 0.0
          0.0133333 -0.00833333 0.0
          0.01 -0.00833333 0.0
          0.00666667 -0.00833333 0.0
          0.00333333 -0.00833333 0.0
          0 -0.00833333 0.0
          0.1 -0.0116667 0.0
          0.0966667 -0.0116667 0.0
          0.0933333 -0.0116667 0.0
          0.09 -0.0116667 0.0
          0.0866667 -0.0116667 0.0
          0.0833333 -0.0116667 0.0
          0.08 -0.0116667 0.0
          0.0766667 -0.0116667 0.0
          0.0733333 -0.0116667 0.0
          0.07 -0.0116667 0.0
          0.0666667 -0.0116667 0.0
          0.0633333 -0.0116667 0.0
          0.06 -0.0116667 0.0
          0.0566667 -0.0116667 0.0
          0.0533333 -0.0116667 0.0
          0.05 -0.0116667 0.0
          0.0466667 -0.0116667 0.0
          0.0433333 -0.0116667 0.0
          0.04 -0.0116667 0.0
          0.0366667 -0.0116667 0.0
          0.0333333 -0.0116667 0.0
          0.03 -0.0116667 0.0
          0.0266667 -0.0116667 0.0
          0.0233333 -0.0116667 0.0
          0.02 -0.0116667 0.0
          0.0166667 -0.0116667 0.0
          0.0133333 -0.0116667 0.0
          0.01 -0.0116667 0.0
          0.00666667 -0.0116667 0.0
          0.00333333 -0.0116667 0.0
          0 -0.0116667 0.0
          0.1 -0.015 0.0
          0.0966667 -0.015 0.0
          0.0933333 -0.015 0.0
          0.09 -0.015 0.0
          0.0866667 -0.015 0.0
          0.0833333 -0.015 0.0
          0.08 -0.015 0.0
          0.0766667 -0.015 0.0
          0.0733333 -0.015 0.0
          0.07 -0.015 0.0
          0.0666667 -0.015 0.0
          0.0633333 -0.015 0.0
          0.06 -0.015 0.0
          0.0566667 -0.015 0.0
          0.0533333 -0.015 0.0
          0.05 -0.015 0.0
          0.0466667 -0.015 0.0
          0.0433333 -0.015 0.0
          0.04 -0.015 0.0
          0.0366667 -0.015 0.0
          0.0333333 -0.015 0.0
          0.03 -0.015 0.0
          0.0266667 -0.015 0.0
          0.0233333 -0.015 0.0
          0.02 -0.015 0.0
          0.0166667 -0.015 0.0
          0.0133333 -0.015 0.0
          0.01 -0.015 0.0
          0.00666667 -0.015 0.0
          0.00333333 -0.015 0.0
          0 -0.015 0.0
          0.1 -0.0183333 0.0
          0.0966667 -0.0183333 0.0
          0.0933333 -0.0183333 0.0
          0.09 -0.0183333 0.0
          0.0866667 -0.0183333 0.0
          0.0833333 -0.0183333 0.0
          0.08 -0.0183333 0.0
          0.0766667 -0.0183333 0.0
          0.0733333 -0.0183333 0.0
          0.07 -0.0183333 0.0
          0.0666667 -0.0183333 0.0
          0.0633333 -0.0183333 0.0
          0.06 -0.0183333 0.0
          0.0566667 -0.0183333 0.0
          0.0533333 -0.0183333 0.0
          0.05 -0.0183333 0.0
          0.0466667 -0.0183333 0.0
          0.0433333 -0.0183333 0.0
          0.04 -0.0183333 0.0
          0.0366667 -0.0183333 0.0
          0.0333333 -0.0183333 0.0
          0.03 -0.0183333 0.0
          0.0266667 -0.0183333 0.0
          0.0233333 -0.0183333 0.0
          0.02 -0.0183333 0.0
          0.0166667 -0.0183333 0.0
          0.0133333 -0.0183333 0.0
          0.01 -0.0183333 0.0
          0.00666667 -0.0183333 0.0
          0.00333333 -0.0183333 0.0
          0 -0.0183333 0.0
          0.1 -0.0216667 0.0
          0.0966667 -0.0216667 0.0
          0.0933333 -0.0216667 0.0
          0.09 -0.0216667 0.0
          0.0866667 -0.0216667 0.0
          0.0833333 -0.0216667 0.0
          0.08 -0.0216667 0.0
          0.0766667 -0.0216667 0.0
          0.0733333 -0.0216667 0.0
          0.07 -0.0216667 0.0
          0.0666667 -0.0216667 0.0
          0.0633333 -0.0216667 0.0
          0.06 -0.0216667 0.0
          0.0566667 -0.0216667 0.0
          0.0533333 -0.0216667 0.0
          0.05 -0.0216667 0.0
          0.0466667 -0.0216667 0.0
          0.0433333 -0.0216667 0.0
          0.04 -0.0216667 0.0
          0.0366667 -0.0216667 0.0
          0.0333333 -0.0216667 0.0
          0.03 -0.0216667 0.0
          0.0266667 -0.0216667 0.0
          0.0233333 -0.0216667 0.0
          0.02 -0.0216667 0.0
          0.0166667 -0.0216667 0.0
          0.0133333 -0.0216667 0.0
          0.01 -0.0216667 0.0
          0.00666667 -0.0216667 0.0
          0.00333333 -0.0216667 0.0
          0 -0.0216667 0.0
          0.1 -0.025 0.0
          0.0966667 -0.025 0.0
          0.0933333 -0.025 0.0
          0.09 -0.025 0.0
          0.0866667 -0.025 0.0
          0.0833333 -0.025 0.0
          0.08 -0.025 0.0
          0.0766667 -0.025 0.0
          0.0733333 -0.025 0.0
          0.07 -0.025 0.0
          0.0666667 -0.025 0.0
          0.0633333 -0.025 0.0
          0.06 -0.025 0.0
          0.0566667 -0.025 0.0
          0.0533333 -0.025 0.0
          0.05 -0.025 0.0
          0.0466667 -0.025 0.0
          0.0433333 -0.025 0.0
          0.04 -0.025 0.0
          0.0366667 -0.025 0.0
          0.0333333 -0.025 0.0
          0.03 -0.025 0.0
          0.0266667 -0.025 0.0
          0.0233333 -0.025 0.0
          0.02 -0.025 0.0
          0.0166667 -0.025 0.0
          0.0133333 -0.025 0.0
          0.01 -0.025 0.0
          0.00666667 -0.025 0.0
          0.00333333 -0.025 0.0
          0 -0.025 0.0
          0.1 -0.0283333 0.0
          0.0966667 -0.0283333 0.0
          0.0933333 -0.0283333 0.0
          0.09 -0.0283333 0.0
          0.0866667 -0.0283333 0.0
          0.0833333 -0.0283333 0.0
          0.08 -0.0283333 0.0
          0.0766667 -0.0283333 0.0
          0.0733333 -0.0283333 0.0
          0.07 -0.0283333 0.0
          0.0666667 -0.0283333 0.0
          0.0633333 -0.0283333 0.0
          0.06 -0.0283333 0.0
          0.0566667 -0.0283333 0.0
          0.0533333 -0.0283333 0.0
          0.05 -0.0283333 0.0
          0.0466667 -0.0283333 0.0
          0.0433333 -0.0283333 0.0
          0.04 -0.0283333 0.0
          0.0366667 -0.0283333 0.0
          0.0333333 -0.0283333 0.0
          0.03 -0.0283333 0.0
          0.0266667 -0.0283333 0.0
          0.0233333 -0.0283333 0.0
          0.02 -0.0283333 0.0
          0.0166667 -0.0283333 0.0
          0.0133333 -0.0283333 0.0
          0.01 -0.0283333 0.0
          0.00666667 -0.0283333 0.0
          0.00333333 -0.0283333 0.0
          0 -0.0283333 0.0
          0.1 -0.0316667 0.0
          0.0966667 -0.0316667 0.0
          0.0933333 -0.0316667 0.0
          0.09 -0.0316667 0.0
          0.0866667 -0.0316667 0.0
          0.0833333 -0.0316667 0.0
          0.08 -0.0316667 0.0
          0.0766667 -0.0316667 0.0
          0.0733333 -0.0316667 0.0
          0.07 -0.0316667 0.0
          0.0666667 -0.0316667 0.0
          0.0633333 -0.0316667 0.0
          0.06 -0.0316667 0.0
          0.0566667 -0.0316667 0.0
          0.0533333 -0.0316667 0.0
          0.05 -0.0316667 0.0
          0.0466667 -0.0316667 0.0
          0.0433333 -0.0316667 0.0
          0.04 -0.0316667 0.0
          0.0366667 -0.0316667 0.0
          0.0333333 -0.0316667 0.0
          0.03 -0.0316667 0.0
          0.0266667 -0.0316667 0.0
          0.0233333 -0.0316667 0.0
          0.02 -0.0316667 0.0
          0.0166667 -0.0316667 0.0
          0.0133333 -0.0316667 0.0
          0.01 -0.0316667 0.0
          0.00666667 -0.0316667 0.0
          0.00333333 -0.0316667 0.0
          0 -0.0316667 0.0
          0.1 -0.035 0.0
          0.0966667 -0.035 0.0
          0.0933333 -0.035 0.0
          0.09 -0.035 0.0
          0.0866667 -0.035 0.0
          0.0833333 -0.035 0.0
          0.08 -0.035 0.0
          0.0766667 -0.035 0.0
          0.0733333 -0.035 0.0
          0.07 -0.035 0.0
          0.0666667 -0.035 0.0
          0.0633333 -0.035 0.0
          0.06 -0.035 0.0
          0.0566667 -0.035 0.0
          0.0533333 -0.035 0.0
          0.05 -0.035 0.0