<?xml version="1.0"?>
<VTKFile type="UnstructuredGrid" version="0.1" byte_order="LittleEndian">
  <UnstructuredGrid>
    <Piece NumberOfPoints="961" NumberOfCells="900">
      <PointData Scalars="Temperature">
        <DataArray type="Float32" Name="Temperature" format="ascii">
          31.1893
          31.1893
          31.1893
          31.1893
          31.1893
          31.1893
          31.1893
          31.1893
          31.1893
          31.1893
          31.1893
          31.1893
          31.1893
          31.1893
          31.1893
          31.1893
          31.1893
          31.1893
          31.1893
          31.1893
          31.1893
          31.1893
          31.1893
          31.1893
          31.1893
          31.1893
          31.1893
          31.1893
          31.1893
          31.1893
          31.1893
          31.1893
          31.1893
          31.1893
          31.1893
          31.1893
          31.1893
          31.1893
          31.1893
          31.1893
          31.1893
          31.1893
          31.1893
          31.1893
          31.1893
          31.1893
          31.1893
          31.1893
          31.1893
          31.1893
          31.1893
          31.1893
          31.1893
          31.1893
          31.1893
          31.1893
          31.1893
          31.1893
          31.1893
          31.1893
          31.1893
          31.1893
          31.1893
          31.1893
          31.1893
          31.1893
          31.1893
          31.1893
          31.1893
          31.1893
          31.1893
          31.1893
          31.1893
          31.1893
          31.1893
          31.1893
          31.1893
          31.1893
          31.1893
          31.1893
          31.1893
          31.1893
          31.1893
          31.1893
          31.1893
          31.1893
          31.1893
          31.1893
          31.1893
          31.1893
          31.1893
          31.1893
          31.1893
          31.1893
          31.1893
          31.1893
          31.1893
          40.7704
          40.7713
          40.7715
          40.7711
          31.1893
          31.1893
          41.0064
          41.0069
          41.0069
          41.0064
          31.1893
          31.1893
          41.0412
          41.0417
          41.0417
          41.0412
          31.1893
          31.1893
          40.8348
          40.8353
          40.8351
          40.8343
          31.1893
          31.1893
          31.1893
          31.1893
          31.1893
          31.1893
          31.1893
          31.1893
          31.1893
          40.772
          40.7723
          40.7725
          40.7725
          31.1893
          31.1893
          41.0078
          41.0079
          41.0079
          41.0078
          31.1893
          31.1893
          41.0426
          41.0427
          41.0427
          41.0426
          31.1893
          31.1893
          40.8362
          40.8363
          40.8361
          40.8358
          31.1893
          31.1893
          31.1893
          31.1893
          31.1893
          31.1893
          31.1893
          31.1893
          31.1893
          40.7742
          40.7745
          40.7746
          40.7746
          31.1893
          31.1893
          41.0098
          41.0098
          41.0098
          41.0098
          31.1893
          31.1893
          41.0446
          41.0446
          41.0446
          41.0446
          31.1893
          31.1893
          40.8383
          40.8384
          40.8382
          40.838
          31.1893
          31.1893
          31.1893
          31.1893
          31.1893
          31.1893
          31.1893
          31.1893
          31.1893
          40.7772
          40.7775
          40.7776
          40.7777
          31.1893
          31.1893
          41.0126
          41.0126
          41.0126
          41.0126
          31.1893
          31.1893
          41.0474
          41.0474
          41.0474
          41.0474
          31.1893
          31.1893
          40.8414
          40.8414
          40.8412
          40.841
          31.1893
          31.1893
          31.1893
          31.1893
          31.1893
          31.1893
          31.1893
          31.1893
          31.1893
          40.7812
          40.7815
          40.7816
          40.7816
          31.1893
          31.1893
          41.0162
          41.0162
          41.0162
          41.0162
          31.1893
          31.1893
          41.051
          41.0511
          41.0511
          41.051
          31.1893
          31.1893
          40.8453
          40.8453
          40.8452
          40.8449
          31.1893
          31.1893
          31.1893
          31.1893
          31.1893
          31.1893
          31.1893
          31.1893
          31.1893
          40.7861
          40.7863
          40.7865
          40.7865
          31.1893
          31.1893
          41.0207
          41.0207
          41.0207
          41.0207
          31.1893
          31.1893
          41.0555
          41.0555
          41.0555
          41.0555
          31.1893
          31.1893
          40.8501
          40.8501
          40.85
          40.8497
          31.1893
          31.1893
          31.1893
          31.1893
          31.1893
          31.1893
          31.1893
          31.1893
          31.1893
          40.7919
          40.7921
          40.7923
          40.7923
          31.1893
          31.1893
          41.0259
          41.026
          41.026
          41.0259
          31.1893
          31.1893
          41.0608
          41.0608
          41.0608
          41.0608
          31.1893
          31.1893
          40.8558
          40.8558
          40.8556
          40.8554
          31.1893
          31.1893
          31.1893
          31.1893
          31.1893
          31.1893
          31.1893
          31.1893
          31.1893
          40.7985
          40.7988
          40.7989
          40.7989
          31.1893
          31.1893
          41.032
          41.032
          41.032
          41.032
          31.1893
          31.1893
          41.0668
          41.0669
          41.0669
          41.0668
          31.1893
          31.1893
          40.8623
          40.8623
          40.8622
          40.862
          31.1893
          31.1893
          31.1893
          31.1893
          31.1893
          31.1893
          31.1893
          31.1893
          31.1893
          40.8061
          40.8064
          40.8065
          40.8065
          31.1893
          31.1893
          41.0389
          41.0389
          41.0389
          41.0389
          31.1893
          31.1893
          41.0738
          41.0738
          41.0738
          41.0737
          31.1893
          31.1893
          40.8698
          40.8698
          40.8697
          40.8695
          31.1893
          31.1893
          31.1893
          31.1893
          31.1893
          31.1893
          31.1893
          31.1893
          31.1893
          40.8146
          40.8148
          40.815
          40.815
          31.1893
          31.1893
          41.0466
          41.0467
          41.0467
          41.0466
          31.1893
          31.1893
          41.0815
          41.0815
          41.0815
          41.0815
          31.1893
          31.1893
          40.8781
          40.8781
          40.878
          40.8778
          31.1893
          31.1893
          31.1893
          31.1893
          31.1893
          31.1893
          31.1893
          31.1893
          31.1893
          40.824
          40.8242
          40.8244
          40.8244
          31.1893
          31.1893
          41.0552
          41.0552
          41.0552
          41.0552
          31.1893
          31.1893
          41.09
          41.0901
          41.09
          41.09
          31.1893
          31.1893
          40.8874
          40.8874
          40.8872
          40.887
          31.1893
          31.1893
          31.1893
          31.1893
          31.1893
          31.1893
          31.1893
          31.1893
          31.1893
          40.8342
          40.8345
          40.8346
          40.8347
          31.1893
          31.1893
          41.0645
          41.0645
          41.0645
          41.0645
          31.1893
          31.1893
          41.0994
          41.0994
          41.0994
          41.0994
          31.1893
          31.1893
          40.8975
          40.8975
          40.8974
          40.8971
          31.1893
          31.1893
          31.1893
          31.1893
          31.1893
          31.1893
          31.1893
          31.1893
          31.1893
          40.8454
          40.8457
          40.8458
          40.8458
          31.1893
          31.1893
          41.0747
          41.0747
          41.0747
          41.0747
          31.1893
          31.1893
          41.1096
          41.1096
          41.1096
          41.1096
          31.1893
          31.1893
          40.9085
          40.9085
          40.9084
          40.9081
          31.1893
          31.1893
          31.1893
          31.1893
          31.1893
          31.1893
          31.1893
          31.1893
          31.1893
          40.8575
          40.8578
          40.8579
          40.8579
          31.1893
          31.1893
          41.0857
          41.0857
          41.0857
          41.0857
          31.1893
          31.1893
          41.1206
          41.1206
          41.1206
          41.1205
          31.1893
          31.1893
          40.9204
          40.9203
          40.9202
          40.92
          31.1893
          31.1893
          31.1893
          31.1893
          31.1893
          31.1893
          31.1893
          31.1893
          31.1893
          40.8705
          40.8708
          40.8709
          40.8709
          31.1893
          31.1893
          41.0975
          41.0975
          41.0975
          41.0975
          31.1893
          31.1893
          41.1324
          41.1324
          41.1324
          41.1324
          31.1893
          31.1893
          40.9331
          40.9331
          40.933
          40.9328
          31.1893
          31.1893
          31.1893
          31.1893
          31.1893
          31.1893
          31.1893
          31.1893
          31.1893
          40.8844
          40.8846
          40.8848
          40.8848
          31.1893
          31.1893
          41.1101
          41.1101
          41.1101
          41.1101
          31.1893
          31.1893
          41.145
          41.145
          41.145
          41.145
          31.1893
          31.1893
          40.9468
          40.9468
          40.9467
          40.9464
          31.1893
          31.1893
          31.1893
          31.1893
          31.1893
          31.1893
          31.1893
          31.1893
          31.1893
          40.8992
          40.8994
          40.8996
          40.8996
          31.1893
          31.1893
          41.1235
          41.1236
          41.1236
          41.1235
          31.1893
          31.1893
          41.1584
          41.1585
          41.1585
          41.1584
          31.1893
          31.1893
          40.9613
          40.9613
          40.9612
          40.961
          31.1893
          31.1893
          31.1893
          31.1893
          31.1893
          31.1893
          31.1893
          31.1893
          31.1893
          40.9149
          40.9151
          40.9153
          40.9153
          31.1893
          31.1893
          41.1378
          41.1378
          41.1378
          41.1378
          31.1893
          31.1893
          41.1727
          41.1727
          41.1727
          41.1727
          31.1893
          31.1893
          40.9767
          40.9767
          40.9766
          40.9764
          31.1893
          31.1893
          31.1893
          31.1893
          31.1893
          31.1893
          31.1893
          31.1893
          31.1893
          40.9314
          40.9317
          40.9319
          40.9319
          31.1893
          31.1893
          41.1528
          41.1529
          41.1529
          41.1529
          31.1893
          31.1893
          41.1878
          41.1878
          41.1878
          41.1878
          31.1893
          31.1893
          40.9931
          40.993
          40.9929
          40.9927
          31.1893
          31.1893
          31.1893
          31.1893
          31.1893
          31.1893
          31.1893
          31.1893
          31.1893
          40.9489
          40.9492
          40.9494
          40.9494
          31.1893
          31.1893
          41.1687
          41.1687
          41.1688
          41.1688
          31.1893
          31.1893
          41.2037
          41.2037
          41.2037
          41.2036
          31.1893
          31.1893
          41.0103
          41.0102
          41.0101
          41.0098
          31.1893
          31.1893
          31.1893
          31.1893
          31.1893
          31.1893
          31.1893
          31.1893
          31.1893
          40.9671
          40.9675
          40.9679
          40.968
          31.1893
          31.1893
          41.1852
          41.1854
          41.1856
          41.1857
          31.1893
          31.1893
          41.2206
          41.2205
          41.2203
          41.2202
          31.1893
          31.1893
          41.0285
          41.0284
          41.0281
          41.0278
          31.1893
          31.1893
          31.1893
          31.1893
          31.1893
          31.1893
          31.1893
          31.1893
          31.1893
          40.986
          40.9865
          40.9874
          40.9878
          31.1893
          31.1893
          41.2022
          41.2026
          41.2034
          41.2038
          31.1893
          31.1893
          41.2385
          41.2382
          41.2377
          41.2374
          31.1893
          31.1893
          41.048
          41.0476
          41.0467
          41.0462
          31.1893
          31.1893
          31.1893
          31.1893
          31.1893
          31.1893
          31.1893
          31.1893
          31.1893
          41.0045
          41.0059
          41.0083
          41.0096
          31.1893
          31.1893
          41.2187
          41.2201
          41.2226
          41.2239
          31.1893
          31.1893
          41.258
          41.2571
          41.2555
          41.2546
          31.1893
          31.1893
          41.0694
          41.0682
          41.0658
          41.0644
          31.1893
          31.1893
          31.1893
          31.1893
          31.1893
          31.1893
          31.1893
          31.1893
          31.1893
          41.0209
          41.024
          41.0324
          41.0354
          31.1893
          31.1893
          41.2327
          41.236
          41.245
          41.2482
          31.1893
          31.1893
          41.2805
          41.2784
          41.2725
          41.2704
          31.1893
          31.1893
          41.0949
          41.0919
          41.0834
          41.0802
          31.1893
          31.1893
          31.1893
          31.1893
          31.1893
          40.9469
          40.9741
          40.9937
          41.0116
          41.0281
          41.0388
          41.0552
          41.0841
          41.1462
          41.1906
          41.2317
          41.2508
          41.2687
          41.2917
          41.3279
          41.335
          41.3156
          41.3009
          41.2893
          41.2766
          41.2449
          41.2041
          41.1434
          41.1144
          41.0978
          41.0866
          41.0692
          41.0511
          41.0327
          41.0129
          40.9857
          40.9579
          40.9767
          40.9948
          41.0124
          41.0299
          41.0491
          41.073
          41.107
          41.1483
          41.1933
          41.2333
          41.2671
          41.2945
          41.3189
          41.3369
          41.3439
          41.3387
          41.3258
          41.3085
          41.2835
          41.2496
          41.2075
          41.1665
          41.1323
          41.1078
          41.088
          41.0698
          41.0516
          41.0337
          41.0155
          40.9967
          40.9702
          40.9818
          40.9967
          41.0138
          41.033
          41.0551
          41.082
          41.1151
          41.1543
          41.1981
          41.2464
          41.2904
          41.3232
          41.3474
          41.3631
          41.3696
          41.3665
          41.3548
          41.3347
          41.3047
          41.2623
          41.2158
          41.1753
          41.1414
          41.1137
          41.0908
          41.0708
          41.0524
          41.0354
          41.0206
          41.0089
          40.9792
          40.984
          40.9976
          41.0145
          41.0341
          41.0571
          41.0846
          41.1177
          41.1564
          41.2007
          41.2544
          41.3046
          41.3392
          41.3636
          41.379
          41.3854
          41.3827
          41.371
          41.3501
          41.3184
          41.2705
          41.2192
          41.1782
          41.1441
          41.1157
          41.0919
          41.0713
          41.0528
          41.0363
          41.0227
          41.0179
        </DataArray>
      </PointData>
      <CellData>
      </CellData>
      <Points>
        <DataArray type="Float32" NumberOfComponents="3" format="ascii">
          0.039 0.00195 0.0
          0.0377 0.00195 0.0
          0.0364 0.00195 0.0
          0.0351 0.00195 0.0
          0.0338 0.00195 0.0
          0.0325 0.00195 0.0
          0.0312 0.00195 0.0
          0.0299 0.00195 0.0
          0.0286 0.00195 0.0
          0.0273 0.00195 0.0
          0.026 0.00195 0.0
          0.0247 0.00195 0.0
          0.0234 0.00195 0.0
          0.0221 0.00195 0.0
          0.0208 0.00195 0.0
          0.0195 0.00195 0.0
          0.0182 0.00195 0.0
          0.0169 0.00195 0.0
          0.0156 0.00195 0.0
          0.0143 0.00195 0.0
          0.013 0.00195 0.0
          0.0117 0.00195 0.0
          0.0104 0.00195 0.0
          0.0091 0.00195 0.0
          0.0078 0.00195 0.0
          0.0065 0.00195 0.0
          0.0052 0.00195 0.0
          0.0039 0.00195 0.0
          0.0026 0.00195 0.0
          0.0013 0.00195 0.0
          0 0.00195 0.0
          0.039 0.00065 0.0
          0.0377 0.00065 0.0
          0.0364 0.00065 0.0
          0.0351 0.00065 0.0
          0.0338 0.00065 0.0
          0.0325 0.00065 0.0
          0.0312 0.00065 0.0
          0.0299 0.00065 0.0
          0.0286 0.00065 0.0
          0.0273 0.00065 0.0
          0.026 0.00065 0.0
          0.0247 0.00065 0.0
          0.0234 0.00065 0.0
          0.0221 0.00065 0.0
          0.0208 0.00065 0.0
          0.0195 0.00065 0.0
          0.0182 0.00065 0.0
          0.0169 0.00065 0.0
          0.0156 0.00065 0.0
          0.0143 0.00065 0.0
          0.013 0.00065 0.0
          0.0117 0.00065 0.0
          0.0104 0.00065 0.0
          0.0091 0.00065 0.0
          0.0078 0.00065 0.0
          0.0065 0.00065 0.0
          0.0052 0.00065 0.0
          0.0039 0.00065 0.0
          0.0026 0.00065 0.0
          0.0013 0.00065 0.0
          0 0.00065 0.0
          0.039 -0.00065 0.0
          0.0377 -0.00065 0.0
          0.0364 -0.00065 0.0
          0.0351 -0.00065 0.0
          0.0338 -0.00065 0.0
          0.0325 -0.00065 0.0
          0.0312 -0.00065 0.0
          0.0299 -0.00065 0.0
          0.0286 -0.00065 0.0
          0.0273 -0.00065 0.0
          0.026 -0.00065 0.0
          0.0247 -0.00065 0.0
          0.0234 -0.00065 0.0
          0.0221 -0.00065 0.0
          0.0208 -0.00065 0.0
          0.0195 -0.00065 0.0
          0.0182 -0.00065 0.0
          0.0169 -0.00065 0.0
          0.0156 -0.00065 0.0
          0.0143 -0.00065 0.0
          0.013 -0.00065 0.0
          0.0117 -0.00065 0.0
          0.0104 -0.00065 0.0
          0.0091 -0.00065 0.0
          0.0078 -0.00065 0.0
          0.0065 -0.00065 0.0
          0.0052 -0.00065 0.0
          0.0039 -0.00065 0.0
          0.0026 -0.00065 0.0
          0.0013 -0.00065 0.0
          0 -0.00065 0.0
          0.039 -0.00195 0.0
          0.0377 -0.00195 0.0
          0.0364 -0.00195 0.0
          0.0351 -0.00195 0.0
          0.0338 -0.00195 0.0
          0.0325 -0.00195 0.0
          0.0312 -0.00195 0.0
          0.0299 -0.00195 0.0
          0.0286 -0.00195 0.0
          0.0273 -0.00195 0.0
          0.026 -0.00195 0.0
          0.0247 -0.00195 0.0
          0.0234 -0.00195 0.0
          0.0221 -0.00195 0.0
          0.0208 -0.00195 0.0
          0.0195 -0.00195 0.0
          0.0182 -0.00195 0.0
          0.0169 -0.00195 0.0
          0.0156 -0.00195 0.0
          0.0143 -0.00195 0.0
          0.013 -0.00195 0.0
          0.0117 -0.00195 0.0
          0.0104 -0.00195 0.0
          0.0091 -0.00195 0.0
          0.0078 -0.00195 0.0
          0.0065 -0.00195 0.0
          0.0052 -0.00195 0.0
          0.0039 -0.00195 0.0
          0.0026 -0.00195 0.0
          0.0013 -0.00195 0.0
          0 -0.00195 0.0
          0.039 -0.00325 0.0
          0.0377 -0.00325 0.0
          0.0364 -0.00325 0.0
          0.0351 -0.00325 0.0
          0.0338 -0.00325 0.0
          0.0325 -0.00325 0.0
          0.0312 -0.00325 0.0
          0.0299 -0.00325 0.0
          0.0286 -0.00325 0.0
          0.0273 -0.00325 0.0
          0.026 -0.00325 0.0
          0.0247 -0.00325 0.0
          0.0234 -0.00325 0.0
          0.0221 -0.00325 0.0
          0.0208 -0.00325 0.0
          0.0195 -0.00325 0.0
          0.0182 -0.00325 0.0
          0.0169 -0.00325 0.0
          0.0156 -0.00325 0.0
          0.0143 -0.00325 0.0
          0.013 -0.00325 0.0
          0.0117 -0.00325 0.0
          0.0104 -0.00325 0.0
          0.0091 -0.00325 0.0
          0.0078 -0.00325 0.0
          0.0065 -0.00325 0.0
          0.0052 -0.00325 0.0
          0.0039 -0.00325 0.0
          0.0026 -0.00325 0.0
          0.0013 -0.00325 0.0
          0 -0.00325 0.0
          0.039 -0.00455 0.0
          0.0377 -0.00455 0.0
          0.0364 -0.00455 0.0
          0.0351 -0.00455 0.0
          0.0338 -0.00455 0.0
          0.0325 -0.00455 0.0
          0.0312 -0.00455 0.0
          0.0299 -0.00455 0.0
          0.0286 -0.00455 0.0
          0.0273 -0.00455 0.0
          0.026 -0.00455 0.0
          0.0247 -0.00455 0.0
          0.0234 -0.00455 0.0
          0.0221 -0.00455 0.0
          0.0208 -0.00455 0.0
          0.0195 -0.00455 0.0
          0.0182 -0.00455 0.0
          0.0169 -0.00455 0.0
          0.0156 -0.00455 0.0
          0.0143 -0.00455 0.0
          0.013 -0.00455 0.0
          0.0117 -0.00455 0.0
          0.0104 -0.00455 0.0
          0.0091 -0.00455 0.0
          0.0078 -0.00455 0.0
          0.0065 -0.00455 0.0
          0.0052 -0.00455 0.0
          0.0039 -0.00455 0.0
          0.0026 -0.00455 0.0
          0.0013 -0.00455 0.0
          0 -0.00455 0.0
          0.039 -0.00585 0.0
          0.0377 -0.00585 0.0
          0.0364 -0.00585 0.0
          0.0351 -0.00585 0.0
          0.0338 -0.00585 0.0
          0.0325 -0.00585 0.0
          0.0312 -0.00585 0.0
          0.0299 -0.00585 0.0
          0.0286 -0.00585 0.0
          0.0273 -0.00585 0.0
          0.026 -0.00585 0.0
          0.0247 -0.00585 0.0
          0.0234 -0.00585 0.0
          0.0221 -0.00585 0.0
          0.0208 -0.00585 0.0
          0.0195 -0.00585 0.0
          0.0182 -0.00585 0.0
          0.0169 -0.00585 0.0
          0.0156 -0.00585 0.0
          0.0143 -0.00585 0.0
          0.013 -0.00585 0.0
          0.0117 -0.00585 0.0
          0.0104 -0.00585 0.0
          0.0091 -0.00585 0.0
          0.0078 -0.00585 0.0
          0.0065 -0.00585 0.0
          0.0052 -0.00585 0.0
          0.0039 -0.00585 0.0
          0.0026 -0.00585 0.0
          0.0013 -0.00585 0.0
          0 -0.00585 0.0
          0.039 -0.00715 0.0
          0.0377 -0.00715 0.0
          0.0364 -0.00715 0.0
          0.0351 -0.00715 0.0
          0.0338 -0.00715 0.0
          0.0325 -0.00715 0.0
          0.0312 -0.00715 0.0
          0.0299 -0.00715 0.0
          0.0286 -0.00715 0.0
          0.0273 -0.00715 0.0
          0.026 -0.00715 0.0
          0.0247 -0.00715 0.0
          0.0234 -0.00715 0.0
          0.0221 -0.00715 0.0
          0.0208 -0.00715 0.0
          0.0195 -0.00715 0.0
          0.0182 -0.00715 0.0
          0.0169 -0.00715 0.0
          0.0156 -0.00715 0.0
          0.0143 -0.00715 0.0
          0.013 -0.00715 0.0
          0.0117 -0.00715 0.0
          0.0104 -0.00715 0.0
          0.0091 -0.00715 0.0
          0.0078 -0.00715 0.0
          0.0065 -0.00715 0.0
          0.0052 -0.00715 0.0
          0.0039 -0.00715 0.0
          0.0026 -0.00715 0.0
          0.0013 -0.00715 0.0
          0 -0.00715 0.0
          0.039 -0.00845 0.0
          0.0377 -0.00845 0.0
          0.0364 -0.00845 0.0
          0.0351 -0.00845 0.0
          0.0338 -0.00845 0.0
          0.0325 -0.00845 0.0
          0.0312 -0.00845 0.0
          0.0299 -0.00845 0.0
          0.0286 -0.00845 0.0
          0.0273 -0.00845 0.0
          0.026 -0.00845 0.0
          0.0247 -0.00845 0.0
          0.0234 -0.00845 0.0
          0.0221 -0.00845 0.0
          0.0208 -0.00845 0.0
          0.0195 -0.00845 0.0
          0.0182 -0.00845 0.0
          0.0169 -0.00845 0.0
          0.0156 -0.00845 0.0
          0.0143 -0.00845 0.0
          0.013 -0.00845 0.0
          0.0117 -0.00845 0.0
          0.0104 -0.00845 0.0
          0.0091 -0.00845 0.0
          0.0078 -0.00845 0.0
          0.0065 -0.00845 0.0
          0.0052 -0.00845 0.0
          0.0039 -0.00845 0.0
          0.0026 -0.00845 0.0
          0.0013 -0.00845 0.0
          0 -0.00845 0.0
          0.039 -0.00975 0.0
          0.0377 -0.00975 0.0
          0.0364 -0.00975 0.0
          0.0351 -0.00975 0.0
          0.0338 -0.00975 0.0
          0.0325 -0.00975 0.0
          0.0312 -0.00975 0.0
          0.0299 -0.00975 0.0
          0.0286 -0.00975 0.0
          0.0273 -0.00975 0.0
          0.026 -0.00975 0.0
          0.0247 -0.00975 0.0
          0.0234 -0.00975 0.0
          0.0221 -0.00975 0.0
          0.0208 -0.00975 0.0
          0.0195 -0.00975 0.0
          0.0182 -0.00975 0.0
          0.0169 -0.00975 0.0
          0.0156 -0.00975 0.0
          0.0143 -0.00975 0.0
          0.013 -0.00975 0.0
          0.0117 -0.00975 0.0
          0.0104 -0.00975 0.0
          0.0091 -0.00975 0.0
          0.0078 -0.00975 0.0
          0.0065 -0.00975 0.0
          0.0052 -0.00975 0.0
          0.0039 -0.00975 0.0
          0.0026 -0.00975 0.0
          0.0013 -0.00975 0.0
          0 -0.00975 0.0
          0.039 -0.01105 0.0
          0.0377 -0.01105 0.0
          0.0364 -0.01105 0.0
          0.0351 -0.01105 0.0
          0.0338 -0.01105 0.0
          0.0325 -0.01105 0.0
          0.0312 -0.01105 0.0
          0.0299 -0.01105 0.0
          0.0286 -0.01105 0.0
          0.0273 -0.01105 0.0
          0.026 -0.01105 0.0
          0.0247 -0.01105 0.0
          0.0234 -0.01105 0.0
          0.0221 -0.01105 0.0
          0.0208 -0.01105 0.0
          0.0195 -0.01105 0.0
          0.0182 -0.01105 0.0
          0.0169 -0.01105 0.0
          0.0156 -0.01105 0.0
          0.0143 -0.01105 0.0
          0.013 -0.01105 0.0
          0.0117 -0.01105 0.0
          0.0104 -0.01105 0.0
          0.0091 -0.01105 0.0
          0.0078 -0.01105 0.0
          0.0065 -0.01105 0.0
          0.0052 -0.01105 0.0
          0.0039 -0.01105 0.0
          0.0026 -0.01105 0.0
          0.0013 -0.01105 0.0
          0 -0.01105 0.0
          0.039 -0.01235 0.0
          0.0377 -0.01235 0.0
          0.0364 -0.01235 0.0
          0.0351 -0.01235 0.0
          0.0338 -0.01235 0.0
          0.0325 -0.01235 0.0
          0.0312 -0.01235 0.0
          0.0299 -0.01235 0.0
          0.0286 -0.01235 0.0
          0.0273 -0.01235 0.0
          0.026 -0.01235 0.0
          0.0247 -0.01235 0.0
          0.0234 -0.01235 0.0
          0.0221 -0.01235 0.0
          0.0208 -0.01235 0.0
          0.0195 -0.01235 0.0
          0.0182 -0.01235 0.0
          0.0169 -0.01235 0.0
          0.0156 -0.01235 0.0
          0.0143 -0.01235 0.0
          0.013 -0.01235 0.0
          0.0117 -0.01235 0.0
          0.0104 -0.01235 0.0
          0.0091 -0.01235 0.0
          0.0078 -0.01235 0.0
          0.0065 -0.01235 0.0
          0.0052 -0.01235 0.0
          0.0039 -0.01235 0.0
          0.0026 -0.01235 0.0
          0.0013 -0.01235 0.0
          0 -0.01235 0.0
          0.039 -0.01365 0.0
          0.0377 -0.01365 0.0
          0.0364 -0.01365 0.0
          0.0351 -0.01365 0.0
          0.0338 -0.01365 0.0
          0.0325 -0.01365 0.0
          0.0312 -0.01365 0.0
          0.0299 -0.01365 0.0
          0.0286 -0.01365 0.0
          0.0273 -0.01365 0.0
          0.026 -0.01365 0.0
          0.0247 -0.01365 0.0
          0.0234 -0.01365 0.0
          0.0221 -0.01365 0.0
          0.0208 -0.01365 0.0
          0.0195 -0.01365 0.0
          0.0182 -0.01365 0.0
          0.0169 -0.01365 0.0
          0.0156 -0.01365 0.0
          0.0143 -0.01365 0.0
          0.013 -0.01365 0.0
          0.0117 -0.01365 0.0
          0.0104 -0.01365 0.0
          0.0091 -0.01365 0.0
          0.0078 -0.01365 0.0
          0.0065 -0.01365 0.0
          0.0052 -0.01365 0.0
          0.0039 -0.01365 0.0
          0.0026 -0.01365 0.0
          0.0013 -0.01365 0.0
          0 -0.01365 0.0
          0.039 -0.01495 0.0
          0.0377 -0.01495 0.0
          0.0364 -0.01495 0.0
          0.0351 -0.01495 0.0
          0.0338 -0.01495 0.0
          0.0325 -0.01495 0.0
          0.0312 -0.01495 0.0
          0.0299 -0.01495 0.0
          0.0286 -0.01495 0.0
          0.0273 -0.01495 0.0
          0.026 -0.01495 0.0
          0.0247 -0.01495 0.0