<?xml version="1.0"?>
<VTKFile type="UnstructuredGrid" version="0.1" byte_order="LittleEndian">
  <UnstructuredGrid>
    <Piece NumberOfPoints="961" NumberOfCells="900">
      <PointData Scalars="Temperature">
        <DataArray type="Float32" Name="Temperature" format="ascii">
          21.0332
          22.4593
          23.9365
          25.4107
          26.6488
          27.4625
          27.7718
          27.7465
          27.6345
          27.6412
          27.7812
          27.9204
          27.9202
          27.7807
          27.642
          27.6438
          27.7858
          27.9279
          27.9303
          27.7941
          27.6588
          27.6586
          27.7794
          27.8225
          27.5523
          26.8183
          25.7108
          24.4221
          23.1833
          22.058
          21.0259
          22.4157
          79.7925
          141.336
          203.105
          256.623
          289.993
          301.659
          297.99
          291.713
          291.885
          299.106
          306.321
          306.312
          299.085
          291.89
          291.968
          299.304
          306.63
          306.723
          299.622
          292.593
          292.686
          299.319
          303.578
          293.387
          263.14
          215.035
          160.88
          109.093
          63.8628
          22.0308
          23.682
          132.661
          251.099
          392.797
          507.861
          580.822
          592.37
          570.453
          545.903
          545.766
          570.874
          596.047
          596.039
          570.821
          545.674
          545.867
          571.302
          596.701
          596.793
          571.806
          547.054
          547.784
          572.943
          595.607
          585.521
          518.319
          413.896
          287.997
          188.362
          102.396
          22.9584
          24.7326
          176.316
          342.451
          541.434
          900.198
          900.238
          900.248
          900.231
          736.134
          735.569
          897.513
          897.533
          897.533
          897.513
          735.287
          735.572
          898.553
          898.574
          898.574
          898.554
          737.263
          738.661
          904.236
          904.254
          904.246
          904.208
          569.434
          393.948
          254.586
          134.923
          23.7439
          25.4957
          207.652
          403.498
          635.685
          900.368
          900.383
          900.392
          900.391
          847.567
          846.654
          897.677
          897.68
          897.68
          897.677
          846.209
          846.556
          898.717
          898.72
          898.72
          898.717
          848.561
          850.463
          904.394
          904.395
          904.387
          904.374
          668.662
          466.628
          303.765
          159.77
          24.3497
          25.9753
          226.63
          437.003
          662.632
          900.761
          900.774
          900.781
          900.782
          882.808
          881.899
          898.08
          898.081
          898.081
          898.08
          881.36
          881.706
          899.118
          899.119
          899.119
          899.118
          883.894
          885.79
          904.777
          904.776
          904.77
          904.759
          699.973
          508.92
          335.81
          176.866
          24.7727
          26.2339
          236.541
          451.615
          673.729
          901.389
          901.401
          901.408
          901.41
          894.375
          893.473
          898.728
          898.728
          898.728
          898.728
          892.909
          893.255
          899.763
          899.764
          899.764
          899.763
          895.491
          897.376
          905.39
          905.389
          905.383
          905.373
          714.311
          529.851
          354.621
          187.53
          25.0418
          26.3601
          241.196
          458.332
          678.867
          902.252
          902.264
          902.27
          902.273
          898.684
          897.792
          899.62
          899.62
          899.62
          899.62
          897.227
          897.571
          900.651
          900.651
          900.651
          900.651
          899.809
          901.679
          906.233
          906.231
          906.226
          906.216
          721.699
          540.836
          364.981
          193.728
          25.2006
          26.42
          243.447
          461.646
          681.645
          903.347
          903.358
          903.365
          903.367
          900.879
          900
          900.753
          900.753
          900.753
          900.753
          899.443
          899.785
          901.778
          901.778
          901.778
          901.778
          902.007
          903.858
          907.302
          907.301
          907.295
          907.285
          725.958
          546.899
          370.738
          197.224
          25.291
          26.452
          244.658
          463.534
          683.504
          904.671
          904.683
          904.689
          904.692
          902.572
          901.709
          902.125
          902.125
          902.125
          902.125
          901.164
          901.504
          903.143
          903.143
          903.143
          903.143
          903.702
          905.529
          908.595
          908.594
          908.588
          908.579
          728.758
          550.512
          374.077
          199.238
          25.343
          26.4722
          245.444
          464.862
          685.058
          906.222
          906.233
          906.24
          906.242
          904.266
          903.421
          903.732
          903.732
          903.732
          903.732
          902.893
          903.23
          904.742
          904.742
          904.742
          904.742
          905.397
          907.196
          910.109
          910.108
          910.102
          910.093
          730.902
          552.922
          376.183
          200.48
          25.3749
          26.4882
          246.076
          466.008
          686.573
          907.995
          908.007
          908.014
          908.016
          906.116
          905.293
          905.57
          905.57
          905.57
          905.57
          904.783
          905.117
          906.571
          906.571
          906.571
          906.571
          907.248
          909.014
          911.84
          911.839
          911.833
          911.824
          732.792
          554.772
          377.688
          201.337
          25.3967
          26.5029
          246.673
          467.138
          688.164
          909.987
          909.998
          910.005
          910.007
          908.167
          907.369
          907.636
          907.636
          907.636
          907.636
          906.88
          907.211
          908.625
          908.625
          908.625
          908.625
          909.3
          911.029
          913.784
          913.782
          913.777
          913.767
          734.636
          556.398
          378.924
          202.016
          25.4137
          26.518
          247.286
          468.322
          689.879
          912.192
          912.203
          912.21
          912.212
          910.429
          909.659
          909.923
          909.923
          909.923
          909.923
          909.194
          909.52
          910.9
          910.9
          910.9
          910.9
          911.564
          913.252
          915.935
          915.934
          915.928
          915.919
          736.541
          557.979
          380.073
          202.629
          25.4289
          26.534
          247.939
          469.594
          691.737
          914.605
          914.616
          914.623
          914.625
          912.903
          912.163
          912.426
          912.426
          912.426
          912.426
          911.724
          912.046
          913.39
          913.39
          913.39
          913.39
          914.039
          915.682
          918.289
          918.287
          918.282
          918.272
          738.568
          559.616
          381.237
          203.242
          25.4441
          26.5514
          248.645
          470.968
          693.749
          917.22
          917.231
          917.238
          917.24
          915.583
          914.876
          915.139
          915.139
          915.139
          915.139
          914.465
          914.782
          916.089
          916.089
          916.089
          916.089
          916.721
          918.313
          920.839
          920.837
          920.832
          920.823
          740.758
          561.381
          382.488
          203.901
          25.4604
          26.57
          249.415
          472.462
          695.923
          920.03
          920.042
          920.049
          920.051
          918.464
          917.791
          918.056
          918.056
          918.056
          918.056
          917.412
          917.724
          918.989
          918.989
          918.989
          918.99
          919.603
          921.142
          923.579
          923.578
          923.572
          923.563
          743.155
          563.346
          383.903
          204.652
          25.4788
          26.5922
          250.271
          474.104
          698.277
          923.029
          923.041
          923.048
          923.05
          921.537
          920.903
          921.168
          921.168
          921.168
          921.168
          920.556
          920.863
          922.085
          922.085
          922.085
          922.085
          922.678
          924.159
          926.503
          926.501
          926.495
          926.486
          745.822
          565.62
          385.591
          205.566
          25.5027
          26.6126
          251.261
          475.958
          700.853
          926.209
          926.221
          926.228
          926.23
          924.797
          924.203
          924.469
          924.469
          924.469
          924.469
          923.891
          924.191
          925.368
          925.368
          925.368
          925.368
          925.939
          927.358
          929.602
          929.6
          929.595
          929.585
          748.873
          568.397
          387.748
          206.766
          25.5287
          26.6604
          252.488
          478.177
          703.753
          929.563
          929.574
          929.581
          929.584
          928.235
          927.683
          927.95
          927.95
          927.95
          927.95
          927.408
          927.702
          928.829
          928.829
          928.829
          928.829
          929.377
          930.732
          932.869
          932.867
          932.862
          932.853
          752.529
          572.035
          390.741
          208.476
          25.5892
          26.6373
          254.23
          481.1
          707.221
          933.081
          933.093
          933.1
          933.102
          931.842
          931.336
          931.602
          931.603
          931.603
          931.602
          931.099
          931.386
          932.461
          932.461
          932.461
          932.462
          932.985
          934.271
          936.296
          936.294
          936.289
          936.28
          757.205
          577.227
          395.262
          211.169
          25.5902
          26.9807
          256.94
          485.555
          711.801
          936.756
          936.768
          936.775
          936.777
          935.612
          935.152
          935.417
          935.418
          935.418
          935.418
          934.956
          935.235
          936.255
          936.255
          936.255
          936.255
          936.754
          937.968
          939.874
          939.872
          939.867
          939.858
          763.693
          585.269
          402.69
          215.58
          25.9777
          26.0341
          262.417
          493.222
          718.799
          940.579
          940.59
          940.597
          940.599
          939.538
          939.128
          939.386
          939.386
          939.386
          939.386
          938.973
          939.245
          940.2
          940.2
          940.2
          940.201
          940.68
          941.818
          943.593
          943.592
          943.588
          943.579
          773.436
          598.664
          415.484
          223.89
          25.0981
          30.6674
          271.75
          508.802
          730.914
          944.54
          944.55
          944.556
          944.557
          943.626
          943.267
          943.497
          943.497
          943.497
          943.497
          943.155
          943.418
          944.286
          944.287
          944.288
          944.289
          944.766
          945.823
          947.442
          947.443
          947.441
          947.435
          789.027
          621.814
          439.315
          237.614
          29.8559
          13.8662
          300.049
          539.523
          754.873
          948.63
          948.638
          948.642
          948.642
          947.908
          947.602
          947.74
          947.741
          947.741
          947.742
          947.536
          947.788
          948.501
          948.504
          948.51
          948.512
          949.044
          950.014
          951.409
          951.413
          951.42
          951.419
          814.201
          663.38
          482.325
          272.258
          13.1471
          85.36
          335.59
          615.383
          799.885
          952.84
          952.844
          952.843
          952.841
          952.513
          952.264
          952.106
          952.107
          952.108
          952.109
          952.245
          952.483
          952.83
          952.839
          952.856
          952.865
          953.643
          954.511
          955.471
          955.489
          955.518
          955.531
          852.664
          733.918
          575.01
          316.146
          85.0972
          -190.924
          562.077
          759.935
          872.154
          957.165
          957.162
          957.144
          957.138
          957.873
          957.69
          956.58
          956.582
          956.589
          956.591
          957.727
          957.931
          957.246
          957.268
          957.329
          957.351
          959.004
          959.711
          959.591
          959.633
          959.75
          959.789
          905.356
          839.162
          740.405
          553.32
          -191.943
          961.804
          964.594
          965.542
          965.296
          962.504
          961.132
          961.096
          962.375
          964.931
          964.854
          962.069
          960.694
          960.707
          962.114
          964.963
          965.093
          962.57
          961.326
          961.445
          962.98
          966.102
          966.506
          964.443
          963.419
          963.647
          965.235
          968.513
          969.328
          969.182
          968.042
          965.189
          963.473
          965.298
          966.132
          965.93
          965.216
          964.53
          964.482
          965.056
          965.621
          965.55
          964.863
          964.205
          964.224
          964.925
          965.661
          965.786
          965.28
          964.786
          964.955
          965.832
          966.78
          967.168
          966.918
          966.644
          966.965
          967.973
          969.091
          969.811
          969.673
          968.688
          966.81
          965.905
          966.883
          967.404
          967.484
          967.25
          967
          966.954
          967.115
          967.273
          967.222
          966.974
          966.75
          966.771
          967.039
          967.337
          967.445
          967.36
          967.297
          967.481
          967.925
          968.421
          968.742
          968.869
          968.995
          969.338
          969.916
          970.528
          970.871
          970.747
          970.143
          969.132
          967.397
          967.555
          967.979
          968.109
          968.008
          967.86
          967.818
          967.888
          967.956
          967.912
          967.762
          967.636
          967.658
          967.829
          968.028
          968.132
          968.139
          968.172
          968.357
          968.703
          969.093
          969.398
          969.602
          969.816
          970.158
          970.633
          971.098
          971.344
          971.223
          970.758
          970.577
        </DataArray>
      </PointData>
      <CellData>
      </CellData>
      <Points>
        <DataArray type="Float32" NumberOfComponents="3" format="ascii">
          0.1 0.005 0.0
          0.0966667 0.005 0.0
          0.0933333 0.005 0.0
          0.09 0.005 0.0
          0.0866667 0.005 0.0
          0.0833333 0.005 0.0
          0.08 0.005 0.0
          0.0766667 0.005 0.0
          0.0733333 0.005 0.0
          0.07 0.005 0.0
          0.0666667 0.005 0.0
          0.0633333 0.005 0.0
          0.06 0.005 0.0
          0.0566667 0.005 0.0
          0.0533333 0.005 0.0
          0.05 0.005 0.0
          0.0466667 0.005 0.0
          0.0433333 0.005 0.0
          0.04 0.005 0.0
          0.0366667 0.005 0.0
          0.0333333 0.005 0.0
          0.03 0.005 0.0
          0.0266667 0.005 0.0
          0.0233333 0.005 0.0
          0.02 0.005 0.0
          0.0166667 0.005 0.0
          0.0133333 0.005 0.0
          0.01 0.005 0.0
          0.00666667 0.005 0.0
          0.00333333 0.005 0.0
          0 0.005 0.0
          0.1 0.00166667 0.0
          0.0966667 0.00166667 0.0
          0.0933333 0.00166667 0.0
          0.09 0.00166667 0.0
          0.0866667 0.00166667 0.0
          0.0833333 0.00166667 0.0
          0.08 0.00166667 0.0
          0.0766667 0.00166667 0.0
          0.0733333 0.00166667 0.0
          0.07 0.00166667 0.0
          0.0666667 0.00166667 0.0
          0.0633333 0.00166667 0.0
          0.06 0.00166667 0.0
          0.0566667 0.00166667 0.0
          0.0533333 0.00166667 0.0
          0.05 0.00166667 0.0
          0.0466667 0.00166667 0.0
          0.0433333 0.00166667 0.0
          0.04 0.00166667 0.0
          0.0366667 0.00166667 0.0
          0.0333333 0.00166667 0.0
          0.03 0.00166667 0.0
          0.0266667 0.00166667 0.0
          0.0233333 0.00166667 0.0
          0.02 0.00166667 0.0
          0.0166667 0.00166667 0.0
          0.0133333 0.00166667 0.0
          0.01 0.00166667 0.0
          0.00666667 0.00166667 0.0
          0.00333333 0.00166667 0.0
          0 0.00166667 0.0
          0.1 -0.00166667 0.0
          0.0966667 -0.00166667 0.0
          0.0933333 -0.00166667 0.0
          0.09 -0.00166667 0.0
          0.0866667 -0.00166667 0.0
          0.0833333 -0.00166667 0.0
          0.08 -0.00166667 0.0
          0.0766667 -0.00166667 0.0
          0.0733333 -0.00166667 0.0
          0.07 -0.00166667 0.0
          0.0666667 -0.00166667 0.0
          0.0633333 -0.00166667 0.0
          0.06 -0.00166667 0.0
          0.0566667 -0.00166667 0.0
          0.0533333 -0.00166667 0.0
          0.05 -0.00166667 0.0
          0.0466667 -0.00166667 0.0
          0.0433333 -0.00166667 0.0
          0.04 -0.00166667 0.0
          0.0366667 -0.00166667 0.0
          0.0333333 -0.00166667 0.0
          0.03 -0.00166667 0.0
          0.0266667 -0.00166667 0.0
          0.0233333 -0.00166667 0.0
          0.02 -0.00166667 0.0
          0.0166667 -0.00166667 0.0
          0.0133333 -0.00166667 0.0
          0.01 -0.00166667 0.0
          0.00666667 -0.00166667 0.0
          0.00333333 -0.00166667 0.0
          0 -0.00166667 0.0
          0.1 -0.005 0.0
          0.0966667 -0.005 0.0
          0.0933333 -0.005 0.0
          0.09 -0.005 0.0
          0.0866667 -0.005 0.0
          0.0833333 -0.005 0.0
          0.08 -0.005 0.0
          0.0766667 -0.005 0.0
          0.0733333 -0.005 0.0
          0.07 -0.005 0.0
          0.0666667 -0.005 0.0
          0.0633333 -0.005 0.0
          0.06 -0.005 0.0
          0.0566667 -0.005 0.0
          0.0533333 -0.005 0.0
          0.05 -0.005 0.0
          0.0466667 -0.005 0.0
          0.0433333 -0.005 0.0
          0.04 -0.005 0.0
          0.0366667 -0.005 0.0
          0.0333333 -0.005 0.0
          0.03 -0.005 0.0
          0.0266667 -0.005 0.0
          0.0233333 -0.005 0.0
          0.02 -0.005 0.0
          0.0166667 -0.005 0.0
          0.0133333 -0.005 0.0
          0.01 -0.005 0.0
          0.00666667 -0.005 0.0
          0.00333333 -0.005 0.0
          0 -0.005 0.0
          0.1 -0.00833333 0.0
          0.0966667 -0.00833333 0.0
          0.0933333 -0.00833333 0.0
          0.09 -0.00833333 0.0
          0.0866667 -0.00833333 0.0
          0.0833333 -0.00833333 0.0
          0.08 -0.00833333 0.0
          0.0766667 -0.00833333 0.0
          0.0733333 -0.00833333 0.0
          0.07 -0.00833333 0.0
          0.0666667 -0.00833333 0.0
          0.0633333 -0.00833333 0.0
          0.06 -0.00833333 0.0
          0.0566667 -0.00833333 0.0
          0.0533333 -0.00833333 0.0
          0.05 -0.00833333 0.0
          0.0466667 -0.00833333 0.0
          0.0433333 -0.00833333 0.0
          0.04 -0.00833333 0.0
          0.0366667 -0.00833333 0.0
          0.0333333 -0.00833333 0.0
          0.03 -0.00833333 0.0
          0.0266667 -0.00833333 0.0
          0.0233333 -0.00833333 0.0
          0.02 -0.00833333 0.0
          0.0166667 -0.00833333 0.0
          0.0133333 -0.00833333 0.0
          0.01 -0.00833333 0.0
          0.00666667 -0.00833333 0.0
          0.00333333 -0.00833333 0.0
          0 -0.00833333 0.0
          0.1 -0.0116667 0.0
          0.0966667 -0.0116667 0.0
          0.0933333 -0.0116667 0.0
          0.09 -0.0116667 0.0
          0.0866667 -0.0116667 0.0
          0.0833333 -0.0116667 0.0
          0.08 -0.0116667 0.0
          0.0766667 -0.0116667 0.0
          0.0733333 -0.0116667 0.0
          0.07 -0.0116667 0.0
          0.0666667 -0.0116667 0.0
          0.0633333 -0.0116667 0.0
          0.06 -0.0116667 0.0
          0.0566667 -0.0116667 0.0
          0.0533333 -0.0116667 0.0
          0.05 -0.0116667 0.0
          0.0466667 -0.0116667 0.0
          0.0433333 -0.0116667 0.0
          0.04 -0.0116667 0.0
          0.0366667 -0.0116667 0.0
          0.0333333 -0.0116667 0.0
          0.03 -0.0116667 0.0
          0.0266667 -0.0116667 0.0
          0.0233333 -0.0116667 0.0
          0.02 -0.0116667 0.0
          0.0166667 -0.0116667 0.0
          0.0133333 -0.0116667 0.0
          0.01 -0.0116667 0.0
          0.00666667 -0.0116667 0.0
          0.00333333 -0.0116667 0.0
          0 -0.0116667 0.0
          0.1 -0.015 0.0
          0.0966667 -0.015 0.0
          0.0933333 -0.015 0.0
          0.09 -0.015 0.0
          0.0866667 -0.015 0.0
          0.0833333 -0.015 0.0
          0.08 -0.015 0.0
          0.0766667 -0.015 0.0
          0.0733333 -0.015 0.0
          0.07 -0.015 0.0
          0.0666667 -0.015 0.0
          0.0633333 -0.015 0.0
          0.06 -0.015 0.0
          0.0566667 -0.015 0.0
          0.0533333 -0.015 0.0
          0.05 -0.015 0.0
          0.0466667 -0.015 0.0
          0.0433333 -0.015 0.0
          0.04 -0.015 0.0
          0.0366667 -0.015 0.0
          0.0333333 -0.015 0.0
          0.03 -0.015 0.0
          0.0266667 -0.015 0.0
          0.0233333 -0.015 0.0
          0.02 -0.015 0.0
          0.0166667 -0.015 0.0
          0.0133333 -0.015 0.0
          0.01 -0.015 0.0
          0.00666667 -0.015 0.0
          0.00333333 -0.015 0.0
          0 -0.015 0.0
          0.1 -0.0183333 0.0
          0.0966667 -0.0183333 0.0
          0.0933333 -0.0183333 0.0
          0.09 -0.0183333 0.0
          0.0866667 -0.0183333 0.0
          0.0833333 -0.0183333 0.0
          0.08 -0.0183333 0.0
          0.0766667 -0.0183333 0.0
          0.0733333 -0.0183333 0.0
          0.07 -0.0183333 0.0
          0.0666667 -0.0183333 0.0
          0.0633333 -0.0183333 0.0
          0.06 -0.0183333 0.0
          0.0566667 -0.0183333 0.0
          0.0533333 -0.0183333 0.0
          0.05 -0.0183333 0.0
          0.0466667 -0.0183333 0.0
          0.0433333 -0.0183333 0.0
          0.04 -0.0183333 0.0
          0.0366667 -0.0183333 0.0
          0.0333333 -0.0183333 0.0
          0.03 -0.0183333 0.0
          0.0266667 -0.0183333 0.0
          0.0233333 -0.0183333 0.0
          0.02 -0.0183333 0.0
          0.0166667 -0.0183333 0.0
          0.0133333 -0.0183333 0.0
          0.01 -0.0183333 0.0
          0.00666667 -0.0183333 0.0
          0.00333333 -0.0183333 0.0
          0 -0.0183333 0.0
          0.1 -0.0216667 0.0
          0.0966667 -0.0216667 0.0
          0.0933333 -0.0216667 0.0
          0.09 -0.0216667 0.0
          0.0866667 -0.0216667 0.0
          0.0833333 -0.0216667 0.0
          0.08 -0.0216667 0.0
          0.0766667 -0.0216667 0.0
          0.0733333 -0.0216667 0.0
          0.07 -0.0216667 0.0
          0.0666667 -0.0216667 0.0
          0.0633333 -0.0216667 0.0
          0.06 -0.0216667 0.0
          0.0566667 -0.0216667 0.0
          0.0533333 -0.0216667 0.0
          0.05 -0.0216667 0.0
          0.0466667 -0.0216667 0.0
          0.0433333 -0.0216667 0.0
          0.04 -0.0216667 0.0
          0.0366667 -0.0216667 0.0
          0.0333333 -0.0216667 0.0
          0.03 -0.0216667 0.0
          0.0266667 -0.0216667 0.0
          0.0233333 -0.0216667 0.0
          0.02 -0.0216667 0.0
          0.0166667 -0.0216667 0.0
          0.0133333 -0.0216667 0.0
          0.01 -0.0216667 0.0
          0.00666667 -0.0216667 0.0
          0.00333333 -0.0216667 0.0
          0 -0.0216667 0.0
          0.1 -0.025 0.0
          0.0966667 -0.025 0.0
          0.0933333 -0.025 0.0
          0.09 -0.025 0.0
          0.0866667 -0.025 0.0
          0.0833333 -0.025 0.0
          0.08 -0.025 0.0
          0.0766667 -0.025 0.0
          0.0733333 -0.025 0.0
          0.07 -0.025 0.0
          0.0666667 -0.025 0.0
          0.0633333 -0.025 0.0
          0.06 -0.025 0.0
          0.0566667 -0.025 0.0
          0.0533333 -0.025 0.0
          0.05 -0.025 0.0
          0.0466667 -0.025 0.0
          0.0433333 -0.025 0.0
          0.04 -0.025 0.0
          0.0366667 -0.025 0.0
          0.0333333 -0.025 0.0
          0.03 -0.025 0.0
          0.0266667 -0.025 0.0
          0.0233333 -0.025 0.0
          0.02 -0.025 0.0
          0.0166667 -0.025 0.0
          0.0133333 -0.025 0.0
          0.01 -0.025 0.0
          0.00666667 -0.025 0.0
          0.00333333 -0.025 0.0
          0 -0.025 0.0
          0.1 -0.0283333 0.0
          0.0966667 -0.0283333 0.0
          0.0933333 -0.0283333 0.0
          0.09 -0.0283333 0.0
          0.0866667 -0.0283333 0.0
          0.0833333 -0.0283333 0.0
          0.08 -0.0283333 0.0
          0.0766667 -0.0283333 0.0
          0.0733333 -0.0283333 0.0
          0.07 -0.0283333 0.0
          0.0666667 -0.0283333 0.0
          0.0633333 -0.0283333 0.0
          0.06 -0.0283333 0.0
          0.0566667 -0.0283333 0.0
          0.0533333 -0.0283333 0.0
          0.05 -0.0283333 0.0
          0.0466667 -0.0283333 0.0
          0.0433333 -0.0283333 0.0
          0.04 -0.0283333 0.0
          0.0366667 -0.0283333 0.0
          0.0333333 -0.0283333 0.0
          0.03 -0.0283333 0.0
          0.0266667 -0.0283333 0.0
          0.0233333 -0.0283333 0.0
          0.02 -0.0283333 0.0
          0.0166667 -0.0283333 0.0
          0.0133333 -0.0283333 0.0
          0.01 -0.0283333 0.0
          0.00666667 -0.0283333 0.0
          0.00333333 -0.0283333 0.0
          0 -0.0283333 0.0
          0.1 -0.0316667 0.0
          0.0966667 -0.0316667 0.0
          0.0933333 -0.0316667 0.0
          0.09 -0.0316667 0.0
          0.0866667 -0.0316667 0.0
          0.0833333 -0.0316667 0.0
          0.08 -0.0316667 0.0
          0.0766667 -0.0316667 0.0
          0.0733333 -0.0316667 0.0
          0.07 -0.0316667 0.0
          0.0666667 -0.0316667 0.0
          0.0633333 -0.0316667 0.0
          0.06 -0.0316667 0.0
          0.0566667 -0.0316667 0.0
          0.0533333 -0.0316667 0.0
          0.05 -0.0316667 0.0
          0.0466667 -0.0316667 0.0
          0.0433333 -0.0316667 0.0
          0.04 -0.0316667 0.0
          0.0366667 -0.0316667 0.0
          0.0333333 -0.0316667 0.0
          0.03 -0.0316667 0.0
          0.0266667 -0.0316667 0.0
          0.0233333 -0.0316667 0.0
          0.02 -0.0316667 0.0
          0.0166667 -0.0316667 0.0
          0.0133333 -0.0316667 0.0
          0.01 -0.0316667 0.0
          0.00666667 -0.0316667 0.0
          0.00333333 -0.0316667 0.0
          0 -0.0316667 0.0
          0.1 -0.035 0.0
          0.0966667 -0.035 0.0
          0.0933333 -0.035 0.0
          0.09 -0.035 0.0
          0.0866667 -0.035 0.0
          0.0833333 -0.035 0.0
          0.08 -0.035 0.0
          0.0766667 -0.035 0.0
          0.0733333 -0.035 0.0
          0.07 -0.035 0.0
          0.0666667 -0.035 0.0
          0.0633333 -0.035 0.0
          0.06 -0.035 0.0
          0.0566667 -0.035 0.0
          0.0533333 -0.035 0.0
          0.05 -0.035 0.0
          0.0466667 -0.035 0.0