<?xml version="1.0"?>
<VTKFile type="UnstructuredGrid" version="0.1" byte_order="LittleEndian">
  <UnstructuredGrid>
    <Piece NumberOfPoints="961" NumberOfCells="900">
      <PointData Scalars="Temperature">
        <DataArray type="Float32" Name="Temperature" format="ascii">
          21.0346
          22.5233
          24.0646
          25.6021
          26.8931
          27.7418
          28.0657
          28.0422
          27.9296
          27.9411
          28.0906
          28.238
          28.2387
          28.0935
          27.9486
          27.9501
          28.0975
          28.2447
          28.2456
          28.1007
          27.9549
          27.9489
          28.0695
          28.1107
          27.8278
          27.0633
          25.9103
          24.5682
          23.2773
          22.1038
          21.027
          22.4778
          82.3668
          146.575
          210.989
          266.779
          301.574
          313.789
          310.084
          303.723
          304.093
          311.773
          319.38
          319.408
          311.88
          304.369
          304.43
          312.049
          319.652
          319.69
          312.173
          304.647
          304.497
          311.174
          315.463
          304.793
          273.298
          223.228
          166.84
          112.883
          65.7188
          22.0755
          23.7994
          137.539
          261.088
          408.771
          528.659
          604.665
          616.755
          594.174
          568.985
          569.317
          595.783
          622.17
          622.197
          595.925
          569.699
          569.848
          596.295
          622.707
          622.745
          596.505
          570.321
          570.464
          596.164
          619.448
          608.887
          538.985
          430.354
          299.339
          195.547
          105.915
          23.0433
          24.8955
          183.079
          356.35
          563.682
          937.072
          937.114
          937.124
          937.106
          767.385
          767.497
          936.828
          936.849
          936.849
          936.828
          767.828
          768.047
          937.628
          937.649
          937.649
          937.628
          768.813
          769.355
          940.208
          940.227
          940.218
          940.179
          592.287
          409.728
          264.583
          139.834
          23.8625
          25.6912
          215.746
          419.968
          661.831
          937.197
          937.212
          937.221
          937.221
          883.472
          883.374
          936.944
          936.948
          936.948
          936.944
          883.609
          883.876
          937.744
          937.747
          937.747
          937.744
          884.85
          885.716
          940.321
          940.322
          940.314
          940.301
          695.512
          485.407
          315.82
          165.728
          24.4938
          26.1904
          235.5
          454.822
          689.806
          937.45
          937.463
          937.47
          937.472
          920.078
          919.982
          937.201
          937.202
          937.202
          937.201
          920.162
          920.429
          937.999
          938
          938
          937.999
          921.524
          922.387
          940.566
          940.564
          940.558
          940.547
          728.005
          529.38
          349.162
          183.523
          24.9342
          26.4586
          245.772
          469.931
          701.182
          937.844
          937.856
          937.863
          937.866
          931.883
          931.79
          937.605
          937.606
          937.606
          937.605
          931.955
          932.221
          938.401
          938.401
          938.401
          938.401
          933.348
          934.205
          940.948
          940.946
          940.94
          940.93
          742.743
          551.044
          368.673
          194.592
          25.2136
          26.588
          250.535
          476.754
          706.267
          938.379
          938.391
          938.398
          938.4
          936.006
          935.918
          938.155
          938.155
          938.155
          938.155
          936.082
          936.346
          938.947
          938.947
          938.947
          938.947
          937.476
          938.323
          941.467
          941.465
          941.459
          941.449
          750.156
          562.28
          379.33
          200.983
          25.3775
          26.6475
          252.762
          479.972
          708.811
          939.054
          939.066
          939.073
          939.075
          937.817
          937.736
          938.85
          938.85
          938.85
          938.85
          937.903
          938.166
          939.637
          939.637
          939.637
          939.637
          939.286
          940.121
          942.121
          942.119
          942.113
          942.103
          754.225
          568.322
          385.146
          204.533
          25.4694
          26.6773
          253.877
          481.65
          710.317
          939.866
          939.878
          939.886
          939.888
          939
          938.927
          939.687
          939.687
          939.687
          939.687
          939.1
          939.361
          940.469
          940.469
          940.469
          940.469
          940.465
          941.285
          942.908
          942.907
          942.901
          942.891
          756.69
          571.745
          388.397
          206.517
          25.5208
          26.6941
          254.522
          482.691
          711.429
          940.815
          940.827
          940.835
          940.837
          940.08
          940.018
          940.666
          940.666
          940.666
          940.666
          940.199
          940.458
          941.441
          941.441
          941.441
          941.441
          941.541
          942.344
          943.828
          943.826
          943.82
          943.81
          758.389
          573.851
          390.319
          207.673
          25.5506
          26.7058
          254.98
          483.492
          712.426
          941.899
          941.911
          941.918
          941.92
          941.222
          941.171
          941.784
          941.784
          941.784
          941.784
          941.361
          941.618
          942.551
          942.551
          942.551
          942.551
          942.678
          943.461
          944.877
          944.875
          944.869
          944.859
          759.744
          575.311
          391.571
          208.405
          25.5694
          26.7157
          255.376
          484.226
          713.427
          943.113
          943.125
          943.132
          943.135
          942.475
          942.437
          943.037
          943.037
          943.037
          943.037
          942.638
          942.891
          943.795
          943.796
          943.796
          943.796
          943.926
          944.685
          946.052
          946.05
          946.045
          946.035
          760.972
          576.478
          392.502
          208.93
          25.5827
          26.7253
          255.765
          484.967
          714.485
          944.456
          944.468
          944.475
          944.478
          943.852
          943.829
          944.423
          944.423
          944.423
          944.423
          944.041
          944.291
          945.172
          945.172
          945.172
          945.172
          945.296
          946.029
          947.352
          947.35
          947.344
          947.335
          762.188
          577.538
          393.302
          209.367
          25.5936
          26.7352
          256.17
          485.752
          715.624
          945.924
          945.936
          945.944
          945.946
          945.355
          945.348
          945.939
          945.939
          945.939
          945.939
          945.572
          945.819
          946.677
          946.678
          946.678
          946.678
          946.792
          947.497
          948.773
          948.771
          948.765
          948.755
          763.456
          578.599
          394.078
          209.784
          25.604
          26.746
          256.607
          486.599
          716.855
          947.515
          947.527
          947.534
          947.536
          946.982
          946.992
          947.581
          947.581
          947.581
          947.581
          947.23
          947.473
          948.308
          948.308
          948.308
          948.308
          948.411
          949.085
          950.311
          950.309
          950.303
          950.294
          764.822
          579.737
          394.907
          210.227
          25.6151
          26.7576
          257.088
          487.524
          718.189
          949.223
          949.235
          949.242
          949.244
          948.729
          948.758
          949.345
          949.345
          949.345
          949.345
          949.011
          949.249
          950.059
          950.059
          950.059
          950.059
          950.149
          950.79
          951.962
          951.961
          951.955
          951.945
          766.332
          581.026
          395.866
          210.746
          25.6278
          26.7722
          257.634
          488.559
          719.645
          951.045
          951.057
          951.064
          951.066
          950.593
          950.641
          951.226
          951.226
          951.226
          951.226
          950.91
          951.144
          951.926
          951.926
          951.926
          951.926
          952.003
          952.609
          953.724
          953.722
          953.716
          953.706
          768.051
          582.58
          397.067
          211.412
          25.6456
          26.7846
          258.298
          489.771
          721.27
          952.976
          952.988
          952.996
          952.998
          952.569
          952.638
          953.22
          953.22
          953.22
          953.22
          952.923
          953.152
          953.906
          953.906
          953.906
          953.906
          953.968
          954.536
          955.59
          955.588
          955.583
          955.573
          770.099
          584.593
          398.709
          212.351
          25.6652
          26.8242
          259.181
          491.314
          723.168
          955.013
          955.025
          955.032
          955.034
          954.652
          954.743
          955.322
          955.322
          955.322
          955.322
          955.046
          955.27
          955.992
          955.993
          955.993
          955.993
          956.04
          956.567
          957.558
          957.556
          957.55
          957.54
          772.699
          587.431
          401.164
          213.787
          25.7191
          26.7917
          260.566
          493.532
          725.587
          957.149
          957.161
          957.168
          957.171
          956.837
          956.951
          957.526
          957.526
          957.526
          957.526
          957.272
          957.491
          958.181
          958.181
          958.181
          958.181
          958.213
          958.698
          959.621
          959.619
          959.613
          959.604
          776.271
          591.79
          405.127
          216.198
          25.7127
          27.1288
          262.909
          497.261
          729.079
          959.38
          959.392
          959.399
          959.402
          959.121
          959.259
          959.828
          959.828
          959.828
          959.828
          959.598
          959.811
          960.466
          960.466
          960.466
          960.466
          960.483
          960.924
          961.774
          961.773
          961.767
          961.758
          781.615
          598.975
          411.986
          220.323
          26.0956
          26.1626
          268.025
          504.194
          734.961
          961.7
          961.712
          961.72
          961.722
          961.5
          961.662
          962.221
          962.222
          962.222
          962.222
          962.02
          962.227
          962.841
          962.842
          962.842
          962.842
          962.847
          963.242
          964.013
          964.012
          964.006
          963.997
          790.183
          611.506
          424.216
          228.358
          25.2
          30.8309
          277.007
          519.071
          745.953
          964.104
          964.116
          964.124
          964.127
          963.979
          964.165
          964.7
          964.7
          964.701
          964.702
          964.543
          964.743
          965.302
          965.302
          965.303
          965.303
          965.308
          965.656
          966.332
          966.33
          966.325
          966.317
          804.58
          633.806
          447.522
          241.82
          29.9889
          13.8512
          305.098
          549.166
          768.832
          966.582
          966.595
          966.608
          966.613
          966.58
          966.79
          967.257
          967.258
          967.261
          967.262
          967.187
          967.379
          967.84
          967.841
          967.843
          967.843
          967.887
          968.185
          968.724
          968.722
          968.718
          968.711
          828.554
          674.58
          490.087
          276.336
          13.1279
          86.0395
          340.428
          624.72
          812.849
          969.122
          969.141
          969.167
          969.18
          969.391
          969.617
          969.883
          969.887
          969.896
          969.901
          970.036
          970.217
          970.448
          970.451
          970.456
          970.459
          970.666
          970.911
          971.183
          971.182
          971.178
          971.172
          865.788
          744.41
          582.623
          320.107
          85.6763
          -192.999
          568.472
          769.405
          884.115
          971.697
          971.73
          971.811
          971.84
          972.696
          972.915
          972.564
          972.575
          972.606
          972.617
          973.368
          973.523
          973.114
          973.121
          973.141
          973.149
          973.912
          974.093
          973.705
          973.703
          973.697
          973.693
          917.072
          848.963
          748.295
          558.703
          -193.728
          971.128
          974.062
          975.39
          975.822
          974.693
          974.107
          974.262
          975.224
          977.1
          977.269
          975.792
          975.045
          975.106
          976.002
          977.786
          977.885
          976.348
          975.576
          975.615
          976.482
          978.215
          978.295
          976.793
          976.026
          976.016
          976.765
          978.265
          978.28
          977.615
          976.172
          973.2
          972.687
          974.641
          975.825
          976.25
          976.251
          976.169
          976.392
          976.974
          977.542
          977.708
          977.452
          977.169
          977.257
          977.737
          978.221
          978.316
          978.007
          977.683
          977.739
          978.187
          978.641
          978.715
          978.387
          978.031
          978.015
          978.339
          978.645
          978.619
          977.993
          976.718
          974.731
          974.854
          975.939
          976.756
          977.277
          977.539
          977.719
          977.966
          978.299
          978.604
          978.756
          978.755
          978.734
          978.83
          979.05
          979.267
          979.349
          979.293
          979.228
          979.288
          979.476
          979.665
          979.718
          979.628
          979.512
          979.489
          979.555
          979.574
          979.362
          978.807
          977.938
          976.832
          976.236
          976.488
          977.178
          977.696
          978.026
          978.267
          978.517
          978.795
          979.042
          979.191
          979.246
          979.282
          979.379
          979.541
          979.698
          979.777
          979.776
          979.769
          979.829
          979.959
          980.086
          980.134
          980.095
          980.031
          980.005
          980.01
          979.948
          979.693
          979.171
          978.452
          978.186
        </DataArray>
      </PointData>
      <CellData>
      </CellData>
      <Points>
        <DataArray type="Float32" NumberOfComponents="3" format="ascii">
          0.1 0.005 0.0
          0.0966667 0.005 0.0
          0.0933333 0.005 0.0
          0.09 0.005 0.0
          0.0866667 0.005 0.0
          0.0833333 0.005 0.0
          0.08 0.005 0.0
          0.0766667 0.005 0.0
          0.0733333 0.005 0.0
          0.07 0.005 0.0
          0.0666667 0.005 0.0
          0.0633333 0.005 0.0
          0.06 0.005 0.0
          0.0566667 0.005 0.0
          0.0533333 0.005 0.0
          0.05 0.005 0.0
          0.0466667 0.005 0.0
          0.0433333 0.005 0.0
          0.04 0.005 0.0
          0.0366667 0.005 0.0
          0.0333333 0.005 0.0
          0.03 0.005 0.0
          0.0266667 0.005 0.0
          0.0233333 0.005 0.0
          0.02 0.005 0.0
          0.0166667 0.005 0.0
          0.0133333 0.005 0.0
          0.01 0.005 0.0
          0.00666667 0.005 0.0
          0.00333333 0.005 0.0
          0 0.005 0.0
          0.1 0.00166667 0.0
          0.0966667 0.00166667 0.0
          0.0933333 0.00166667 0.0
          0.09 0.00166667 0.0
          0.0866667 0.00166667 0.0
          0.0833333 0.00166667 0.0
          0.08 0.00166667 0.0
          0.0766667 0.00166667 0.0
          0.0733333 0.00166667 0.0
          0.07 0.00166667 0.0
          0.0666667 0.00166667 0.0
          0.0633333 0.00166667 0.0
          0.06 0.00166667 0.0
          0.0566667 0.00166667 0.0
          0.0533333 0.00166667 0.0
          0.05 0.00166667 0.0
          0.0466667 0.00166667 0.0
          0.0433333 0.00166667 0.0
          0.04 0.00166667 0.0
          0.0366667 0.00166667 0.0
          0.0333333 0.00166667 0.0
          0.03 0.00166667 0.0
          0.0266667 0.00166667 0.0
          0.0233333 0.00166667 0.0
          0.02 0.00166667 0.0
          0.0166667 0.00166667 0.0
          0.0133333 0.00166667 0.0
          0.01 0.00166667 0.0
          0.00666667 0.00166667 0.0
          0.00333333 0.00166667 0.0
          0 0.00166667 0.0
          0.1 -0.00166667 0.0
          0.0966667 -0.00166667 0.0
          0.0933333 -0.00166667 0.0
          0.09 -0.00166667 0.0
          0.0866667 -0.00166667 0.0
          0.0833333 -0.00166667 0.0
          0.08 -0.00166667 0.0
          0.0766667 -0.00166667 0.0
          0.0733333 -0.00166667 0.0
          0.07 -0.00166667 0.0
          0.0666667 -0.00166667 0.0
          0.0633333 -0.00166667 0.0
          0.06 -0.00166667 0.0
          0.0566667 -0.00166667 0.0
          0.0533333 -0.00166667 0.0
          0.05 -0.00166667 0.0
          0.0466667 -0.00166667 0.0
          0.0433333 -0.00166667 0.0
          0.04 -0.00166667 0.0
          0.0366667 -0.00166667 0.0
          0.0333333 -0.00166667 0.0
          0.03 -0.00166667 0.0
          0.0266667 -0.00166667 0.0
          0.0233333 -0.00166667 0.0
          0.02 -0.00166667 0.0
          0.0166667 -0.00166667 0.0
          0.0133333 -0.00166667 0.0
          0.01 -0.00166667 0.0
          0.00666667 -0.00166667 0.0
          0.00333333 -0.00166667 0.0
          0 -0.00166667 0.0
          0.1 -0.005 0.0
          0.0966667 -0.005 0.0
          0.0933333 -0.005 0.0
          0.09 -0.005 0.0
          0.0866667 -0.005 0.0
          0.0833333 -0.005 0.0
          0.08 -0.005 0.0
          0.0766667 -0.005 0.0
          0.0733333 -0.005 0.0
          0.07 -0.005 0.0
          0.0666667 -0.005 0.0
          0.0633333 -0.005 0.0
          0.06 -0.005 0.0
          0.0566667 -0.005 0.0
          0.0533333 -0.005 0.0
          0.05 -0.005 0.0
          0.0466667 -0.005 0.0
          0.0433333 -0.005 0.0
          0.04 -0.005 0.0
          0.0366667 -0.005 0.0
          0.0333333 -0.005 0.0
          0.03 -0.005 0.0
          0.0266667 -0.005 0.0
          0.0233333 -0.005 0.0
          0.02 -0.005 0.0
          0.0166667 -0.005 0.0
          0.0133333 -0.005 0.0
          0.01 -0.005 0.0
          0.00666667 -0.005 0.0
          0.00333333 -0.005 0.0
          0 -0.005 0.0
          0.1 -0.00833333 0.0
          0.0966667 -0.00833333 0.0
          0.0933333 -0.00833333 0.0
          0.09 -0.00833333 0.0
          0.0866667 -0.00833333 0.0
          0.0833333 -0.00833333 0.0
          0.08 -0.00833333 0.0
          0.0766667 -0.00833333 0.0
          0.0733333 -0.00833333 0.0
          0.07 -0.00833333 0.0
          0.0666667 -0.00833333 0.0
          0.0633333 -0.00833333 0.0
          0.06 -0.00833333 0.0
          0.0566667 -0.00833333 0.0
          0.0533333 -0.00833333 0.0
          0.05 -0.00833333 0.0
          0.0466667 -0.00833333 0.0
          0.0433333 -0.00833333 0.0
          0.04 -0.00833333 0.0
          0.0366667 -0.00833333 0.0
          0.0333333 -0.00833333 0.0
          0.03 -0.00833333 0.0
          0.0266667 -0.00833333 0.0
          0.0233333 -0.00833333 0.0
          0.02 -0.00833333 0.0
          0.0166667 -0.00833333 0.0
          0.0133333 -0.00833333 0.0
          0.01 -0.00833333 0.0
          0.00666667 -0.00833333 0.0
          0.00333333 -0.00833333 0.0
          0 -0.00833333 0.0
          0.1 -0.0116667 0.0
          0.0966667 -0.0116667 0.0
          0.0933333 -0.0116667 0.0
          0.09 -0.0116667 0.0
          0.0866667 -0.0116667 0.0
          0.0833333 -0.0116667 0.0
          0.08 -0.0116667 0.0
          0.0766667 -0.0116667 0.0
          0.0733333 -0.0116667 0.0
          0.07 -0.0116667 0.0
          0.0666667 -0.0116667 0.0
          0.0633333 -0.0116667 0.0
          0.06 -0.0116667 0.0
          0.0566667 -0.0116667 0.0
          0.0533333 -0.0116667 0.0
          0.05 -0.0116667 0.0
          0.0466667 -0.0116667 0.0
          0.0433333 -0.0116667 0.0
          0.04 -0.0116667 0.0
          0.0366667 -0.0116667 0.0
          0.0333333 -0.0116667 0.0
          0.03 -0.0116667 0.0
          0.0266667 -0.0116667 0.0
          0.0233333 -0.0116667 0.0
          0.02 -0.0116667 0.0
          0.0166667 -0.0116667 0.0
          0.0133333 -0.0116667 0.0
          0.01 -0.0116667 0.0
          0.00666667 -0.0116667 0.0
          0.00333333 -0.0116667 0.0
          0 -0.0116667 0.0
          0.1 -0.015 0.0
          0.0966667 -0.015 0.0
          0.0933333 -0.015 0.0
          0.09 -0.015 0.0
          0.0866667 -0.015 0.0
          0.0833333 -0.015 0.0
          0.08 -0.015 0.0
          0.0766667 -0.015 0.0
          0.0733333 -0.015 0.0
          0.07 -0.015 0.0
          0.0666667 -0.015 0.0
          0.0633333 -0.015 0.0
          0.06 -0.015 0.0
          0.0566667 -0.015 0.0
          0.0533333 -0.015 0.0
          0.05 -0.015 0.0
          0.0466667 -0.015 0.0
          0.0433333 -0.015 0.0
          0.04 -0.015 0.0
          0.0366667 -0.015 0.0
          0.0333333 -0.015 0.0
          0.03 -0.015 0.0
          0.0266667 -0.015 0.0
          0.0233333 -0.015 0.0
          0.02 -0.015 0.0
          0.0166667 -0.015 0.0
          0.0133333 -0.015 0.0
          0.01 -0.015 0.0
          0.00666667 -0.015 0.0
          0.00333333 -0.015 0.0
          0 -0.015 0.0
          0.1 -0.0183333 0.0
          0.0966667 -0.0183333 0.0
          0.0933333 -0.0183333 0.0
          0.09 -0.0183333 0.0
          0.0866667 -0.0183333 0.0
          0.0833333 -0.0183333 0.0
          0.08 -0.0183333 0.0
          0.0766667 -0.0183333 0.0
          0.0733333 -0.0183333 0.0
          0.07 -0.0183333 0.0
          0.0666667 -0.0183333 0.0
          0.0633333 -0.0183333 0.0
          0.06 -0.0183333 0.0
          0.0566667 -0.0183333 0.0
          0.0533333 -0.0183333 0.0
          0.05 -0.0183333 0.0
          0.0466667 -0.0183333 0.0
          0.0433333 -0.0183333 0.0
          0.04 -0.0183333 0.0
          0.0366667 -0.0183333 0.0
          0.0333333 -0.0183333 0.0
          0.03 -0.0183333 0.0
          0.0266667 -0.0183333 0.0
          0.0233333 -0.0183333 0.0
          0.02 -0.0183333 0.0
          0.0166667 -0.0183333 0.0
          0.0133333 -0.0183333 0.0
          0.01 -0.0183333 0.0
          0.00666667 -0.0183333 0.0
          0.00333333 -0.0183333 0.0
          0 -0.0183333 0.0
          0.1 -0.0216667 0.0
          0.0966667 -0.0216667 0.0
          0.0933333 -0.0216667 0.0
          0.09 -0.0216667 0.0
          0.0866667 -0.0216667 0.0
          0.0833333 -0.0216667 0.0
          0.08 -0.0216667 0.0
          0.0766667 -0.0216667 0.0
          0.0733333 -0.0216667 0.0
          0.07 -0.0216667 0.0
          0.0666667 -0.0216667 0.0
          0.0633333 -0.0216667 0.0
          0.06 -0.0216667 0.0
          0.0566667 -0.0216667 0.0
          0.0533333 -0.0216667 0.0
          0.05 -0.0216667 0.0
          0.0466667 -0.0216667 0.0
          0.0433333 -0.0216667 0.0
          0.04 -0.0216667 0.0
          0.0366667 -0.0216667 0.0
          0.0333333 -0.0216667 0.0
          0.03 -0.0216667 0.0
          0.0266667 -0.0216667 0.0
          0.0233333 -0.0216667 0.0
          0.02 -0.0216667 0.0
          0.0166667 -0.0216667 0.0
          0.0133333 -0.0216667 0.0
          0.01 -0.0216667 0.0
          0.00666667 -0.0216667 0.0
          0.00333333 -0.0216667 0.0
          0 -0.0216667 0.0
          0.1 -0.025 0.0
          0.0966667 -0.025 0.0
          0.0933333 -0.025 0.0
          0.09 -0.025 0.0
          0.0866667 -0.025 0.0
          0.0833333 -0.025 0.0
          0.08 -0.025 0.0
          0.0766667 -0.025 0.0
          0.0733333 -0.025 0.0
          0.07 -0.025 0.0
          0.0666667 -0.025 0.0
          0.0633333 -0.025 0.0
          0.06 -0.025 0.0
          0.0566667 -0.025 0.0
          0.0533333 -0.025 0.0
          0.05 -0.025 0.0
          0.0466667 -0.025 0.0
          0.0433333 -0.025 0.0
          0.04 -0.025 0.0
          0.0366667 -0.025 0.0
          0.0333333 -0.025 0.0
          0.03 -0.025 0.0
          0.0266667 -0.025 0.0
          0.0233333 -0.025 0.0
          0.02 -0.025 0.0
          0.0166667 -0.025 0.0
          0.0133333 -0.025 0.0
          0.01 -0.025 0.0
          0.00666667 -0.025 0.0
          0.00333333 -0.025 0.0
          0 -0.025 0.0
          0.1 -0.0283333 0.0
          0.0966667 -0.0283333 0.0
          0.0933333 -0.0283333 0.0
          0.09 -0.0283333 0.0
          0.0866667 -0.0283333 0.0
          0.0833333 -0.0283333 0.0
          0.08 -0.0283333 0.0
          0.0766667 -0.0283333 0.0
          0.0733333 -0.0283333 0.0
          0.07 -0.0283333 0.0
          0.0666667 -0.0283333 0.0
          0.0633333 -0.0283333 0.0
          0.06 -0.0283333 0.0
          0.0566667 -0.0283333 0.0
          0.0533333 -0.0283333 0.0
          0.05 -0.0283333 0.0
          0.0466667 -0.0283333 0.0
          0.0433333 -0.0283333 0.0
          0.04 -0.0283333 0.0
          0.0366667 -0.0283333 0.0
          0.0333333 -0.0283333 0.0
          0.03 -0.0283333 0.0
          0.0266667 -0.0283333 0.0
          0.0233333 -0.0283333 0.0
          0.02 -0.0283333 0.0
          0.0166667 -0.0283333 0.0
          0.0133333 -0.0283333 0.0
          0.01 -0.0283333 0.0
          0.00666667 -0.0283333 0.0
          0.00333333 -0.0283333 0.0
          0 -0.0283333 0.0
          0.1 -0.0316667 0.0
          0.0966667 -0.0316667 0.0
          0.0933333 -0.0316667 0.0
          0.09 -0.0316667 0.0
          0.0866667 -0.0316667 0.0
          0.0833333 -0.0316667 0.0
          0.08 -0.0316667 0.0
          0.0766667 -0.0316667 0.0
          0.0733333 -0.0316667 0.0
          0.07 -0.0316667 0.0
          0.0666667 -0.0316667 0.0
          0.0633333 -0.0316667 0.0
          0.06 -0.0316667 0.0
          0.0566667 -0.0316667 0.0
          0.0533333 -0.0316667 0.0
          0.05 -0.0316667 0.0
          0.0466667 -0.0316667 0.0
          0.0433333 -0.0316667 0.0
          0.04 -0.0316667 0.0
          0.0366667 -0.0316667 0.0
          0.0333333 -0.0316667 0.0
          0.03 -0.0316667 0.0
          0.0266667 -0.0316667 0.0
          0.0233333 -0.0316667 0.0
          0.02 -0.0316667 0.0
          0.0166667 -0.0316667 0.0
          0.0133333 -0.0316667 0.0
          0.01 -0.0316667 0.0
          0.00666667 -0.0316667 0.0
          0.00333333 -0.0316667 0.0
          0 -0.0316667 0.0
          0.1 -0.035 0.0
          0.0966667 -0.035 0.0
          0.0933333 -0.035 0.0
          0.09 -0.035 0.0
          0.0866667 -0.035 0.0
          0.0833333 -0.035 0.0
          0.08 -0.035 0.0
          0.0766667 -0.035 0.0
          0.0733333 -0.035 0.0
          0.07 -0.035 0.0
          0.0666667 -0.035 0.0
          0.0633333 -0.035 0.0
          0.06 -0.035 0.0
          0.0566667 -0.035 0.0
          0.0533333 -0.035 0.0
          0.05 -0.035 0.0