<?xml version="1.0"?>
<VTKFile type="UnstructuredGrid" version="0.1" byte_order="LittleEndian">
  <UnstructuredGrid>
    <Piece NumberOfPoints="961" NumberOfCells="900">
      <PointData Scalars="Temperature">
        <DataArray type="Float32" Name="Temperature" format="ascii">
          40.4585
          40.4585
          40.4585
          40.4585
          40.4585
          40.4585
          40.4585
          40.4585
          40.4585
          40.4585
          40.4585
          40.4585
          40.4585
          40.4585
          40.4585
          40.4585
          40.4585
          40.4585
          40.4585
          40.4585
          40.4585
          40.4585
          40.4585
          40.4585
          40.4585
          40.4585
          40.4585
          40.4585
          40.4585
          40.4585
          40.4585
          40.4585
          40.4585
          40.4585
          40.4585
          40.4585
          40.4585
          40.4585
          40.4585
          40.4585
          40.4585
          40.4585
          40.4585
          40.4585
          40.4585
          40.4585
          40.4585
          40.4585
          40.4585
          40.4585
          40.4585
          40.4585
          40.4585
          40.4585
          40.4585
          40.4585
          40.4585
          40.4585
          40.4585
          40.4585
          40.4585
          40.4585
          40.4585
          40.4585
          40.4585
          40.4585
          40.4585
          40.4585
          40.4585
          40.4585
          40.4585
          40.4585
          40.4585
          40.4585
          40.4585
          40.4585
          40.4585
          40.4585
          40.4585
          40.4585
          40.4585
          40.4585
          40.4585
          40.4585
          40.4585
          40.4585
          40.4585
          40.4585
          40.4585
          40.4585
          40.4585
          40.4585
          40.4585
          40.4585
          40.4585
          40.4585
          40.4585
          58.9062
          58.9079
          58.9082
          58.9074
          40.4585
          40.4585
          59.2102
          59.2111
          59.2111
          59.2102
          40.4585
          40.4585
          59.2467
          59.2477
          59.2477
          59.2467
          40.4585
          40.4585
          58.981
          58.9819
          58.9816
          58.98
          40.4585
          40.4585
          40.4585
          40.4585
          40.4585
          40.4585
          40.4585
          40.4585
          40.4585
          58.9087
          58.9093
          58.9097
          58.9096
          40.4585
          40.4585
          59.2123
          59.2124
          59.2124
          59.2123
          40.4585
          40.4585
          59.2488
          59.249
          59.249
          59.2488
          40.4585
          40.4585
          58.9832
          58.9833
          58.983
          58.9825
          40.4585
          40.4585
          40.4585
          40.4585
          40.4585
          40.4585
          40.4585
          40.4585
          40.4585
          58.9114
          58.9119
          58.9122
          58.9122
          40.4585
          40.4585
          59.2146
          59.2147
          59.2147
          59.2146
          40.4585
          40.4585
          59.2511
          59.2512
          59.2512
          59.2511
          40.4585
          40.4585
          58.9858
          58.9858
          58.9855
          58.9851
          40.4585
          40.4585
          40.4585
          40.4585
          40.4585
          40.4585
          40.4585
          40.4585
          40.4585
          58.9148
          58.9153
          58.9155
          58.9156
          40.4585
          40.4585
          59.2174
          59.2175
          59.2175
          59.2174
          40.4585
          40.4585
          59.254
          59.254
          59.254
          59.2539
          40.4585
          40.4585
          58.989
          58.989
          58.9888
          58.9884
          40.4585
          40.4585
          40.4585
          40.4585
          40.4585
          40.4585
          40.4585
          40.4585
          40.4585
          58.9188
          58.9193
          58.9196
          58.9196
          40.4585
          40.4585
          59.2208
          59.2209
          59.2209
          59.2208
          40.4585
          40.4585
          59.2574
          59.2574
          59.2574
          59.2574
          40.4585
          40.4585
          58.993
          58.993
          58.9928
          58.9923
          40.4585
          40.4585
          40.4585
          40.4585
          40.4585
          40.4585
          40.4585
          40.4585
          40.4585
          58.9236
          58.9241
          58.9244
          58.9244
          40.4585
          40.4585
          59.2248
          59.2248
          59.2248
          59.2248
          40.4585
          40.4585
          59.2613
          59.2614
          59.2614
          59.2613
          40.4585
          40.4585
          58.9977
          58.9976
          58.9974
          58.997
          40.4585
          40.4585
          40.4585
          40.4585
          40.4585
          40.4585
          40.4585
          40.4585
          40.4585
          58.9292
          58.9296
          58.9299
          58.9299
          40.4585
          40.4585
          59.2293
          59.2293
          59.2293
          59.2293
          40.4585
          40.4585
          59.2658
          59.2659
          59.2659
          59.2658
          40.4585
          40.4585
          59.003
          59.003
          59.0028
          59.0024
          40.4585
          40.4585
          40.4585
          40.4585
          40.4585
          40.4585
          40.4585
          40.4585
          40.4585
          58.9354
          58.9359
          58.9361
          58.9362
          40.4585
          40.4585
          59.2343
          59.2344
          59.2344
          59.2343
          40.4585
          40.4585
          59.2709
          59.271
          59.271
          59.2709
          40.4585
          40.4585
          59.009
          59.009
          59.0088
          59.0084
          40.4585
          40.4585
          40.4585
          40.4585
          40.4585
          40.4585
          40.4585
          40.4585
          40.4585
          58.9423
          58.9428
          58.9431
          58.9431
          40.4585
          40.4585
          59.24
          59.24
          59.24
          59.24
          40.4585
          40.4585
          59.2765
          59.2766
          59.2766
          59.2765
          40.4585
          40.4585
          59.0158
          59.0157
          59.0155
          59.0151
          40.4585
          40.4585
          40.4585
          40.4585
          40.4585
          40.4585
          40.4585
          40.4585
          40.4585
          58.95
          58.9505
          58.9508
          58.9508
          40.4585
          40.4585
          59.2461
          59.2462
          59.2462
          59.2461
          40.4585
          40.4585
          59.2827
          59.2827
          59.2827
          59.2827
          40.4585
          40.4585
          59.0232
          59.0231
          59.0229
          59.0225
          40.4585
          40.4585
          40.4585
          40.4585
          40.4585
          40.4585
          40.4585
          40.4585
          40.4585
          58.9584
          58.9589
          58.9592
          58.9592
          40.4585
          40.4585
          59.2528
          59.2529
          59.2529
          59.2528
          40.4585
          40.4585
          59.2894
          59.2895
          59.2895
          59.2894
          40.4585
          40.4585
          59.0313
          59.0312
          59.031
          59.0306
          40.4585
          40.4585
          40.4585
          40.4585
          40.4585
          40.4585
          40.4585
          40.4585
          40.4585
          58.9675
          58.968
          58.9683
          58.9683
          40.4585
          40.4585
          59.2601
          59.2602
          59.2602
          59.2601
          40.4585
          40.4585
          59.2967
          59.2967
          59.2967
          59.2967
          40.4585
          40.4585
          59.04
          59.04
          59.0398
          59.0394
          40.4585
          40.4585
          40.4585
          40.4585
          40.4585
          40.4585
          40.4585
          40.4585
          40.4585
          58.9774
          58.9779
          58.9781
          58.9782
          40.4585
          40.4585
          59.2679
          59.268
          59.268
          59.2679
          40.4585
          40.4585
          59.3045
          59.3046
          59.3046
          59.3045
          40.4585
          40.4585
          59.0495
          59.0495
          59.0493
          59.0489
          40.4585
          40.4585
          40.4585
          40.4585
          40.4585
          40.4585
          40.4585
          40.4585
          40.4585
          58.9879
          58.9884
          58.9887
          58.9887
          40.4585
          40.4585
          59.2763
          59.2764
          59.2764
          59.2763
          40.4585
          40.4585
          59.3129
          59.313
          59.313
          59.3129
          40.4585
          40.4585
          59.0597
          59.0596
          59.0594
          59.059
          40.4585
          40.4585
          40.4585
          40.4585
          40.4585
          40.4585
          40.4585
          40.4585
          40.4585
          58.9992
          58.9997
          59
          59
          40.4585
          40.4585
          59.2852
          59.2853
          59.2853
          59.2852
          40.4585
          40.4585
          59.3218
          59.3219
          59.3219
          59.3218
          40.4585
          40.4585
          59.0705
          59.0705
          59.0703
          59.0699
          40.4585
          40.4585
          40.4585
          40.4585
          40.4585
          40.4585
          40.4585
          40.4585
          40.4585
          59.0112
          59.0117
          59.012
          59.012
          40.4585
          40.4585
          59.2947
          59.2948
          59.2948
          59.2947
          40.4585
          40.4585
          59.3313
          59.3314
          59.3314
          59.3313
          40.4585
          40.4585
          59.082
          59.082
          59.0818
          59.0814
          40.4585
          40.4585
          40.4585
          40.4585
          40.4585
          40.4585
          40.4585
          40.4585
          40.4585
          59.0239
          59.0244
          59.0247
          59.0247
          40.4585
          40.4585
          59.3047
          59.3048
          59.3048
          59.3048
          40.4585
          40.4585
          59.3414
          59.3414
          59.3414
          59.3413
          40.4585
          40.4585
          59.0942
          59.0942
          59.094
          59.0936
          40.4585
          40.4585
          40.4585
          40.4585
          40.4585
          40.4585
          40.4585
          40.4585
          40.4585
          59.0374
          59.0379
          59.0381
          59.0382
          40.4585
          40.4585
          59.3153
          59.3154
          59.3154
          59.3153
          40.4585
          40.4585
          59.3519
          59.352
          59.352
          59.3519
          40.4585
          40.4585
          59.1071
          59.1071
          59.1069
          59.1065
          40.4585
          40.4585
          40.4585
          40.4585
          40.4585
          40.4585
          40.4585
          40.4585
          40.4585
          59.0515
          59.052
          59.0523
          59.0523
          40.4585
          40.4585
          59.3264
          59.3265
          59.3265
          59.3265
          40.4585
          40.4585
          59.3631
          59.3632
          59.3631
          59.3631
          40.4585
          40.4585
          59.1207
          59.1207
          59.1205
          59.1201
          40.4585
          40.4585
          40.4585
          40.4585
          40.4585
          40.4585
          40.4585
          40.4585
          40.4585
          59.0663
          59.0669
          59.0672
          59.0673
          40.4585
          40.4585
          59.3381
          59.3382
          59.3383
          59.3382
          40.4585
          40.4585
          59.3748
          59.3749
          59.3748
          59.3747
          40.4585
          40.4585
          59.1351
          59.135
          59.1347
          59.1343
          40.4585
          40.4585
          40.4585
          40.4585
          40.4585
          40.4585
          40.4585
          40.4585
          40.4585
          59.0817
          59.0823
          59.0829
          59.0831
          40.4585
          40.4585
          59.3501
          59.3503
          59.3506
          59.3507
          40.4585
          40.4585
          59.3872
          59.3872
          59.387
          59.3868
          40.4585
          40.4585
          59.1502
          59.15
          59.1496
          59.149
          40.4585
          40.4585
          40.4585
          40.4585
          40.4585
          40.4585
          40.4585
          40.4585
          40.4585
          59.0974
          59.0983
          59.0995
          59.1
          40.4585
          40.4585
          59.3623
          59.3628
          59.3637
          59.3641
          40.4585
          40.4585
          59.4004
          59.4002
          59.3996
          59.3992
          40.4585
          40.4585
          59.1665
          59.166
          59.1648
          59.164
          40.4585
          40.4585
          40.4585
          40.4585
          40.4585
          40.4585
          40.4585
          40.4585
          40.4585
          59.1122
          59.1143
          59.1175
          59.1192
          40.4585
          40.4585
          59.3736
          59.3752
          59.378
          59.3794
          40.4585
          40.4585
          59.4151
          59.4142
          59.4123
          59.4112
          40.4585
          40.4585
          59.1849
          59.1832
          59.18
          59.1781
          40.4585
          40.4585
          40.4585
          40.4585
          40.4585
          40.4585
          40.4585
          40.4585
          40.4585
          59.1236
          59.1278
          59.1391
          59.1432
          40.4585
          40.4585
          59.3817
          59.3854
          59.3955
          59.3991
          40.4585
          40.4585
          59.4329
          59.4305
          59.4237
          59.4213
          40.4585
          40.4585
          59.2082
          59.2041
          59.1929
          59.1887
          40.4585
          40.4585
          40.4585
          40.4585
          40.4585
          58.9641
          59.0154
          59.0516
          59.0844
          59.119
          59.1382
          59.1602
          59.1943
          59.2656
          59.3184
          59.3709
          59.395
          59.415
          59.4382
          59.4735
          59.4809
          59.4632
          59.4487
          59.4353
          59.418
          59.3758
          59.3273
          59.2582
          59.2246
          59.2025
          59.183
          59.1479
          59.1158
          59.0829
          59.0467
          58.9954
          58.985
          59.0203
          59.0534
          59.0851
          59.1152
          59.1449
          59.1769
          59.2186
          59.2676
          59.3208
          59.3679
          59.4072
          59.4377
          59.4636
          59.4822
          59.4895
          59.4843
          59.4705
          59.4505
          59.4206
          59.3802
          59.3305
          59.2824
          59.241
          59.2088
          59.1787
          59.1483
          59.1165
          59.0848
          59.0516
          59.0163
          59.0082
          59.0299
          59.0564
          59.0859
          59.1167
          59.1491
          59.1852
          59.2266
          59.2735
          59.3246
          59.3793
          59.4284
          59.4648
          59.491
          59.5078
          59.5146
          59.511
          59.4977
          59.4746
          59.4402
          59.3919
          59.3387
          59.291
          59.2493
          59.2128
          59.1798
          59.1483
          59.1175
          59.0878
          59.0612
          59.0396
          59.0253
          59.0338
          59.0579
          59.0865
          59.1174
          59.1507
          59.1875
          59.229
          59.2755
          59.327
          59.3869
          59.442
          59.4801
          59.5068
          59.5235
          59.5301
          59.5268
          59.5134
          59.4895
          59.4534
          59.3998
          59.3419
          59.2937
          59.2516
          59.2143
          59.1804
          59.1485
          59.118
          59.0894
          59.0652
          59.0566
        </DataArray>
      </PointData>
      <CellData>
      </CellData>
      <Points>
        <DataArray type="Float32" NumberOfComponents="3" format="ascii">
          0.039 0.00195 0.0
          0.0377 0.00195 0.0
          0.0364 0.00195 0.0
          0.0351 0.00195 0.0
          0.0338 0.00195 0.0
          0.0325 0.00195 0.0
          0.0312 0.00195 0.0
          0.0299 0.00195 0.0
          0.0286 0.00195 0.0
          0.0273 0.00195 0.0
          0.026 0.00195 0.0
          0.0247 0.00195 0.0
          0.0234 0.00195 0.0
          0.0221 0.00195 0.0
          0.0208 0.00195 0.0
          0.0195 0.00195 0.0
          0.0182 0.00195 0.0
          0.0169 0.00195 0.0
          0.0156 0.00195 0.0
          0.0143 0.00195 0.0
          0.013 0.00195 0.0
          0.0117 0.00195 0.0
          0.0104 0.00195 0.0
          0.0091 0.00195 0.0
          0.0078 0.00195 0.0
          0.0065 0.00195 0.0
          0.0052 0.00195 0.0
          0.0039 0.00195 0.0
          0.0026 0.00195 0.0
          0.0013 0.00195 0.0
          0 0.00195 0.0
          0.039 0.00065 0.0
          0.0377 0.00065 0.0
          0.0364 0.00065 0.0
          0.0351 0.00065 0.0
          0.0338 0.00065 0.0
          0.0325 0.00065 0.0
          0.0312 0.00065 0.0
          0.0299 0.00065 0.0
          0.0286 0.00065 0.0
          0.0273 0.00065 0.0
          0.026 0.00065 0.0
          0.0247 0.00065 0.0
          0.0234 0.00065 0.0
          0.0221 0.00065 0.0
          0.0208 0.00065 0.0
          0.0195 0.00065 0.0
          0.0182 0.00065 0.0
          0.0169 0.00065 0.0
          0.0156 0.00065 0.0
          0.0143 0.00065 0.0
          0.013 0.00065 0.0
          0.0117 0.00065 0.0
          0.0104 0.00065 0.0
          0.0091 0.00065 0.0
          0.0078 0.00065 0.0
          0.0065 0.00065 0.0
          0.0052 0.00065 0.0
          0.0039 0.00065 0.0
          0.0026 0.00065 0.0
          0.0013 0.00065 0.0
          0 0.00065 0.0
          0.039 -0.00065 0.0
          0.0377 -0.00065 0.0
          0.0364 -0.00065 0.0
          0.0351 -0.00065 0.0
          0.0338 -0.00065 0.0
          0.0325 -0.00065 0.0
          0.0312 -0.00065 0.0
          0.0299 -0.00065 0.0
          0.0286 -0.00065 0.0
          0.0273 -0.00065 0.0
          0.026 -0.00065 0.0
          0.0247 -0.00065 0.0
          0.0234 -0.00065 0.0
          0.0221 -0.00065 0.0
          0.0208 -0.00065 0.0
          0.0195 -0.00065 0.0
          0.0182 -0.00065 0.0
          0.0169 -0.00065 0.0
          0.0156 -0.00065 0.0
          0.0143 -0.00065 0.0
          0.013 -0.00065 0.0
          0.0117 -0.00065 0.0
          0.0104 -0.00065 0.0
          0.0091 -0.00065 0.0
          0.0078 -0.00065 0.0
          0.0065 -0.00065 0.0
          0.0052 -0.00065 0.0
          0.0039 -0.00065 0.0
          0.0026 -0.00065 0.0
          0.0013 -0.00065 0.0
          0 -0.00065 0.0
          0.039 -0.00195 0.0
          0.0377 -0.00195 0.0
          0.0364 -0.00195 0.0
          0.0351 -0.00195 0.0
          0.0338 -0.00195 0.0
          0.0325 -0.00195 0.0
          0.0312 -0.00195 0.0
          0.0299 -0.00195 0.0
          0.0286 -0.00195 0.0
          0.0273 -0.00195 0.0
          0.026 -0.00195 0.0
          0.0247 -0.00195 0.0
          0.0234 -0.00195 0.0
          0.0221 -0.00195 0.0
          0.0208 -0.00195 0.0
          0.0195 -0.00195 0.0
          0.0182 -0.00195 0.0
          0.0169 -0.00195 0.0
          0.0156 -0.00195 0.0
          0.0143 -0.00195 0.0
          0.013 -0.00195 0.0
          0.0117 -0.00195 0.0
          0.0104 -0.00195 0.0
          0.0091 -0.00195 0.0
          0.0078 -0.00195 0.0
          0.0065 -0.00195 0.0
          0.0052 -0.00195 0.0
          0.0039 -0.00195 0.0
          0.0026 -0.00195 0.0
          0.0013 -0.00195 0.0
          0 -0.00195 0.0
          0.039 -0.00325 0.0
          0.0377 -0.00325 0.0
          0.0364 -0.00325 0.0
          0.0351 -0.00325 0.0
          0.0338 -0.00325 0.0
          0.0325 -0.00325 0.0
          0.0312 -0.00325 0.0
          0.0299 -0.00325 0.0
          0.0286 -0.00325 0.0
          0.0273 -0.00325 0.0
          0.026 -0.00325 0.0
          0.0247 -0.00325 0.0
          0.0234 -0.00325 0.0
          0.0221 -0.00325 0.0
          0.0208 -0.00325 0.0
          0.0195 -0.00325 0.0
          0.0182 -0.00325 0.0
          0.0169 -0.00325 0.0
          0.0156 -0.00325 0.0
          0.0143 -0.00325 0.0
          0.013 -0.00325 0.0
          0.0117 -0.00325 0.0
          0.0104 -0.00325 0.0
          0.0091 -0.00325 0.0
          0.0078 -0.00325 0.0
          0.0065 -0.00325 0.0
          0.0052 -0.00325 0.0
          0.0039 -0.00325 0.0
          0.0026 -0.00325 0.0
          0.0013 -0.00325 0.0
          0 -0.00325 0.0
          0.039 -0.00455 0.0
          0.0377 -0.00455 0.0
          0.0364 -0.00455 0.0
          0.0351 -0.00455 0.0
          0.0338 -0.00455 0.0
          0.0325 -0.00455 0.0
          0.0312 -0.00455 0.0
          0.0299 -0.00455 0.0
          0.0286 -0.00455 0.0
          0.0273 -0.00455 0.0
          0.026 -0.00455 0.0
          0.0247 -0.00455 0.0
          0.0234 -0.00455 0.0
          0.0221 -0.00455 0.0
          0.0208 -0.00455 0.0
          0.0195 -0.00455 0.0
          0.0182 -0.00455 0.0
          0.0169 -0.00455 0.0
          0.0156 -0.00455 0.0
          0.0143 -0.00455 0.0
          0.013 -0.00455 0.0
          0.0117 -0.00455 0.0
          0.0104 -0.00455 0.0
          0.0091 -0.00455 0.0
          0.0078 -0.00455 0.0
          0.0065 -0.00455 0.0
          0.0052 -0.00455 0.0
          0.0039 -0.00455 0.0
          0.0026 -0.00455 0.0
          0.0013 -0.00455 0.0
          0 -0.00455 0.0
          0.039 -0.00585 0.0
          0.0377 -0.00585 0.0
          0.0364 -0.00585 0.0
          0.0351 -0.00585 0.0
          0.0338 -0.00585 0.0
          0.0325 -0.00585 0.0
          0.0312 -0.00585 0.0
          0.0299 -0.00585 0.0
          0.0286 -0.00585 0.0
          0.0273 -0.00585 0.0
          0.026 -0.00585 0.0
          0.0247 -0.00585 0.0
          0.0234 -0.00585 0.0
          0.0221 -0.00585 0.0
          0.0208 -0.00585 0.0
          0.0195 -0.00585 0.0
          0.0182 -0.00585 0.0
          0.0169 -0.00585 0.0
          0.0156 -0.00585 0.0
          0.0143 -0.00585 0.0
          0.013 -0.00585 0.0
          0.0117 -0.00585 0.0
          0.0104 -0.00585 0.0
          0.0091 -0.00585 0.0
          0.0078 -0.00585 0.0
          0.0065 -0.00585 0.0
          0.0052 -0.00585 0.0
          0.0039 -0.00585 0.0
          0.0026 -0.00585 0.0
          0.0013 -0.00585 0.0
          0 -0.00585 0.0
          0.039 -0.00715 0.0
          0.0377 -0.00715 0.0
          0.0364 -0.00715 0.0
          0.0351 -0.00715 0.0
          0.0338 -0.00715 0.0
          0.0325 -0.00715 0.0
          0.0312 -0.00715 0.0
          0.0299 -0.00715 0.0
          0.0286 -0.00715 0.0
          0.0273 -0.00715 0.0
          0.026 -0.00715 0.0
          0.0247 -0.00715 0.0
          0.0234 -0.00715 0.0
          0.0221 -0.00715 0.0
          0.0208 -0.00715 0.0
          0.0195 -0.00715 0.0
          0.0182 -0.00715 0.0
          0.0169 -0.00715 0.0
          0.0156 -0.00715 0.0
          0.0143 -0.00715 0.0
          0.013 -0.00715 0.0
          0.0117 -0.00715 0.0
          0.0104 -0.00715 0.0
          0.0091 -0.00715 0.0
          0.0078 -0.00715 0.0
          0.0065 -0.00715 0.0
          0.0052 -0.00715 0.0
          0.0039 -0.00715 0.0
          0.0026 -0.00715 0.0
          0.0013 -0.00715 0.0
          0 -0.00715 0.0
          0.039 -0.00845 0.0
          0.0377 -0.00845 0.0
          0.0364 -0.00845 0.0
          0.0351 -0.00845 0.0
          0.0338 -0.00845 0.0
          0.0325 -0.00845 0.0
          0.0312 -0.00845 0.0
          0.0299 -0.00845 0.0
          0.0286 -0.00845 0.0
          0.0273 -0.00845 0.0
          0.026 -0.00845 0.0
          0.0247 -0.00845 0.0
          0.0234 -0.00845 0.0
          0.0221 -0.00845 0.0
          0.0208 -0.00845 0.0
          0.0195 -0.00845 0.0
          0.0182 -0.00845 0.0
          0.0169 -0.00845 0.0
          0.0156 -0.00845 0.0
          0.0143 -0.00845 0.0
          0.013 -0.00845 0.0
          0.0117 -0.00845 0.0
          0.0104 -0.00845 0.0
          0.0091 -0.00845 0.0
          0.0078 -0.00845 0.0
          0.0065 -0.00845 0.0
          0.0052 -0.00845 0.0
          0.0039 -0.00845 0.0
          0.0026 -0.00845 0.0
          0.0013 -0.00845 0.0
          0 -0.00845 0.0
          0.039 -0.00975 0.0
          0.0377 -0.00975 0.0
          0.0364 -0.00975 0.0
          0.0351 -0.00975 0.0
          0.0338 -0.00975 0.0
          0.0325 -0.00975 0.0
          0.0312 -0.00975 0.0
          0.0299 -0.00975 0.0
          0.0286 -0.00975 0.0
          0.0273 -0.00975 0.0
          0.026 -0.00975 0.0
          0.0247 -0.00975 0.0
          0.0234 -0.00975 0.0
          0.0221 -0.00975 0.0
          0.0208 -0.00975 0.0
          0.0195 -0.00975 0.0
          0.0182 -0.00975 0.0
          0.0169 -0.00975 0.0
          0.0156 -0.00975 0.0
          0.0143 -0.00975 0.0
          0.013 -0.00975 0.0
          0.0117 -0.00975 0.0
          0.0104 -0.00975 0.0
          0.0091 -0.00975 0.0
          0.0078 -0.00975 0.0
          0.0065 -0.00975 0.0
          0.0052 -0.00975 0.0
          0.0039 -0.00975 0.0
          0.0026 -0.00975 0.0
          0.0013 -0.00975 0.0
          0 -0.00975 0.0
          0.039 -0.01105 0.0
          0.0377 -0.01105 0.0
          0.0364 -0.01105 0.0
          0.0351 -0.01105 0.0
          0.0338 -0.01105 0.0
          0.0325 -0.01105 0.0
          0.0312 -0.01105 0.0
          0.0299 -0.01105 0.0
          0.0286 -0.01105 0.0
          0.0273 -0.01105 0.0
          0.026 -0.01105 0.0
          0.0247 -0.01105 0.0
          0.0234 -0.01105 0.0
          0.0221 -0.01105 0.0
          0.0208 -0.01105 0.0
          0.0195 -0.01105 0.0
          0.0182 -0.01105 0.0
          0.0169 -0.01105 0.0
          0.0156 -0.01105 0.0
          0.0143 -0.01105 0.0
          0.013 -0.01105 0.0
          0.0117 -0.01105 0.0
          0.0104 -0.01105 0.0
          0.0091 -0.01105 0.0
          0.0078 -0.01105 0.0
          0.0065 -0.01105 0.0
          0.0052 -0.01105 0.0
          0.0039 -0.01105 0.0
          0.0026 -0.01105 0.0
          0.0013 -0.01105 0.0
          0 -0.01105 0.0
          0.039 -0.01235 0.0
          0.0377 -0.01235 0.0
          0.0364 -0.01235 0.0
          0.0351 -0.01235 0.0
          0.0338 -0.01235 0.0
          0.0325 -0.01235 0.0
          0.0312 -0.01235 0.0
          0.0299 -0.01235 0.0
          0.0286 -0.01235 0.0
          0.0273 -0.01235 0.0
          0.026 -0.01235 0.0
          0.0247 -0.01235 0.0
          0.0234 -0.01235 0.0
          0.0221 -0.01235 0.0
          0.0208 -0.01235 0.0
          0.0195 -0.01235 0.0
          0.0182 -0.01235 0.0
          0.0169 -0.01235 0.0
          0.0156 -0.01235 0.0
          0.0143 -0.01235 0.0
          0.013 -0.01235 0.0
          0.0117 -0.01235 0.0
          0.0104 -0.01235 0.0
          0.0091 -0.01235 0.0
          0.0078 -0.01235 0.0
          0.0065 -0.01235 0.0
          0.0052 -0.01235 0.0
          0.0039 -0.01235 0.0
          0.0026 -0.01235 0.0
          0.0013 -0.01235 0.0
          0 -0.01235 0.0
          0.039 -0.01365 0.0
          0.0377 -0.01365 0.0
          0.0364 -0.01365 0.0
          0.0351 -0.01365 0.0
          0.0338 -0.01365 0.0
          0.0325 -0.01365 0.0
          0.0312 -0.01365 0.0
          0.0299 -0.01365 0.0
          0.0286 -0.01365 0.0
          0.0273 -0.01365 0.0
          0.026 -0.01365 0.0
          0.0247 -0.01365 0.0
          0.0234 -0.01365 0.0
          0.0221 -0.01365 0.0
          0.0208 -0.01365 0.0
          0.0195 -0.01365 0.0
          0.0182 -0.01365 0.0
          0.0169 -0.01365 0.0
          0.0156 -0.01365 0.0
          0.0143 -0.01365 0.0
          0.013 -0.01365 0.0
          0.0117 -0.01365 0.0
          0.0104 -0.01365 0.0
          0.0091 -0.01365 0.0
          0.0078 -0.01365 0.0
          0.0065 -0.01365 0.0
          0.0052 -0.01365 0.0
          0.0039 -0.01365 0.0
          0.0026 -0.01365 0.0
          0.0013 -0.01365 0.0
          0 -0.01365 0.0
          0.039 -0.01495 0.0
          0.0377 -0.01495 0.0
          0.0364 -0.01495 0.0
          0.0351 -0.01495 0.0
          0.0338 -0.01495 0.0
          0.0325 -0.01495 0.0
          0.0312 -0.01495 0.0
          0.0299 -0.01495 0.0
          0.0286 -0.01495 0.0
          0.0273 -0.01495 0.0
          0.026 -0.01495 0.0
          0.0247 -0.01495 0.0
          0.0234 -0.01495 0.0
          0.0221 -0.01495 0.0