<?xml version="1.0"?>
<VTKFile type="UnstructuredGrid" version="0.1" byte_order="LittleEndian">
  <UnstructuredGrid>
    <Piece NumberOfPoints="961" NumberOfCells="900">
      <PointData Scalars="Temperature">
        <DataArray type="Float32" Name="Temperature" format="ascii">
          21.0002
          21.0071
          21.0145
          21.0221
          21.0286
          21.0334
          21.0362
          21.0386
          21.0422
          21.0476
          21.0533
          21.0576
          21.059
          21.0585
          21.0579
          21.0587
          21.0607
          21.0622
          21.0612
          21.057
          21.0513
          21.0461
          21.0427
          21.0405
          21.0377
          21.0328
          21.0261
          21.0185
          21.0116
          21.0055
          21.0001
          21.0069
          21.2866
          21.5956
          21.9159
          22.2034
          22.3956
          22.5016
          22.5806
          22.7263
          22.9563
          23.2175
          23.4009
          23.4561
          23.4128
          23.371
          23.4059
          23.509
          23.5897
          23.5502
          23.3696
          23.1099
          22.8861
          22.7505
          22.6793
          22.574
          22.3759
          22.0811
          21.7613
          21.4675
          21.2236
          21.0053
          21.0131
          21.5473
          22.1471
          22.9043
          23.5343
          23.9532
          24.058
          24.1126
          24.3297
          24.912
          25.5474
          26.0117
          26.0663
          25.8479
          25.6471
          25.736
          26.0665
          26.3616
          26.3226
          25.8519
          25.2116
          24.6448
          24.4559
          24.425
          24.321
          23.8823
          23.2304
          22.4635
          21.8927
          21.4264
          21.0102
          21.0183
          21.7675
          22.6184
          23.6967
          25.7714
          25.7716
          25.7717
          25.7717
          25.5567
          26.4226
          28.979
          28.9793
          28.9793
          28.9792
          27.3931
          27.5256
          29.4713
          29.4715
          29.4715
          29.4712
          26.8338
          25.9908
          26.3496
          26.3496
          26.3495
          26.3493
          24.1502
          23.0636
          22.2552
          21.6011
          21.0144
          21.0223
          21.9319
          22.9455
          24.2236
          25.7889
          25.789
          25.7891
          25.7892
          26.3017
          27.3663
          29.003
          29.0031
          29.0031
          29.0031
          28.4636
          28.6269
          29.4963
          29.4964
          29.4964
          29.4963
          27.8452
          26.8087
          26.3686
          26.3686
          26.3685
          26.3684
          24.7644
          23.4896
          22.5344
          21.7394
          21.0177
          21.025
          22.0406
          23.1435
          24.4011
          25.8411
          25.8412
          25.8412
          25.8413
          26.6131
          27.684
          29.0739
          29.074
          29.074
          29.074
          28.8625
          29.0268
          29.5705
          29.5705
          29.5705
          29.5704
          28.1878
          27.1456
          26.4253
          26.4253
          26.4252
          26.4251
          24.9856
          23.7592
          22.7302
          21.8416
          21.0202
          21.0268
          22.1108
          23.2579
          24.519
          25.9279
          25.928
          25.9281
          25.9281
          26.7875
          27.8689
          29.192
          29.1921
          29.1921
          29.1921
          29.0826
          29.2488
          29.6939
          29.6939
          29.6939
          29.6939
          28.3855
          27.3336
          26.5198
          26.5197
          26.5197
          26.5196
          25.1355
          23.9254
          22.8658
          21.9154
          21.0221
          21.0281
          22.1625
          23.3484
          24.6312
          26.0497
          26.0497
          26.0498
          26.0499
          26.9468
          28.0427
          29.3574
          29.3574
          29.3575
          29.3575
          29.2808
          29.4495
          29.8667
          29.8667
          29.8667
          29.8666
          28.5699
          27.5045
          26.6522
          26.6522
          26.6521
          26.652
          25.2749
          24.0572
          22.9688
          21.9722
          21.0235
          21.0293
          22.2106
          23.4386
          24.7568
          26.2066
          26.2067
          26.2068
          26.2068
          27.1284
          28.243
          29.57
          29.5701
          29.5702
          29.5702
          29.5055
          29.6773
          30.0889
          30.0889
          30.0889
          30.0888
          28.7818
          27.6991
          26.8229
          26.8229
          26.8228
          26.8227
          25.4265
          24.1841
          23.0616
          22.0217
          21.0247
          21.0306
          22.2623
          23.5389
          24.9035
          26.399
          26.3991
          26.3992
          26.3993
          27.3441
          28.4814
          29.8303
          29.8303
          29.8304
          29.8304
          29.7716
          29.9472
          30.3607
          30.3607
          30.3607
          30.3606
          29.0338
          27.9301
          27.0321
          27.032
          27.032
          27.0319
          25.6
          24.3202
          23.1563
          22.071
          21.0259
          21.032
          22.3206
          23.6537
          25.0747
          26.6274
          26.6275
          26.6275
          26.6276
          27.5979
          28.7619
          30.1382
          30.1383
          30.1383
          30.1383
          30.0839
          30.2641
          30.6823
          30.6823
          30.6823
          30.6822
          29.3301
          28.2018
          27.2802
          27.2802
          27.2801
          27.28
          25.8001
          24.4725
          23.2596
          22.1238
          21.0272
          21.0336
          22.387
          23.7851
          25.272
          26.8921
          26.8922
          26.8923
          26.8923
          27.8912
          29.0857
          30.494
          30.4941
          30.4942
          30.4942
          30.4441
          30.6295
          31.0539
          31.0539
          31.0538
          31.0538
          29.6721
          28.5156
          27.5677
          27.5677
          27.5676
          27.5675
          26.0293
          24.6446
          23.375
          22.1824
          21.0287
          21.0355
          22.4622
          23.9343
          25.4964
          27.1937
          27.1938
          27.1939
          27.1939
          28.2248
          29.4536
          30.8981
          30.8981
          30.8982
          30.8982
          30.8528
          31.0442
          31.4756
          31.4756
          31.4756
          31.4755
          30.0606
          28.8725
          27.8951
          27.8951
          27.895
          27.8949
          26.2891
          24.8387
          23.5045
          22.2478
          21.0303
          21.0375
          22.5466
          24.1018
          25.7485
          27.5328
          27.5329
          27.533
          27.533
          28.5993
          29.8661
          31.3505
          31.3506
          31.3507
          31.3507
          31.3105
          31.5085
          31.9477
          31.9477
          31.9477
          31.9476
          30.4959
          29.2728
          28.263
          28.2629
          28.2628
          28.2627
          26.5806
          25.0561
          23.6493
          22.3209
          21.032
          21.0398
          22.6405
          24.2882
          26.0291
          27.91
          27.9101
          27.9102
          27.9102
          29.0153
          30.3236
          31.8517
          31.8518
          31.8519
          31.8519
          31.8175
          32.0227
          32.4705
          32.4705
          32.4705
          32.4704
          30.9785
          29.7173
          28.6719
          28.6718
          28.6718
          28.6717
          26.9047
          25.2978
          23.8103
          22.4022
          21.034
          21.0423
          22.7442
          24.4939
          26.3386
          28.3259
          28.3261
          28.3262
          28.3262
          29.4733
          30.8266
          32.4019
          32.402
          32.4021
          32.4021
          32.374
          32.5871
          33.0442
          33.0442
          33.0441
          33.0441
          31.5089
          30.2064
          29.1226
          29.1225
          29.1224
          29.1223
          27.2624
          25.5649
          23.9884
          22.4921
          21.0362
          21.0451
          22.858
          24.7197
          26.6779
          28.7814
          28.7816
          28.7817
          28.7817
          29.974
          31.3756
          33.0015
          33.0016
          33.0016
          33.0016
          32.9806
          33.2021
          33.669
          33.669
          33.669
          33.6689
          32.0875
          30.7408
          29.6156
          29.6156
          29.6155
          29.6154
          27.6547
          25.8587
          24.1848
          22.5915
          21.0386
          21.0482
          22.9826
          24.9662
          27.0478
          29.2772
          29.2773
          29.2774
          29.2775
          30.5181
          31.971
          33.6506
          33.6507
          33.6508
          33.6508
          33.6374
          33.8679
          34.3452
          34.3452
          34.3452
          34.3451
          32.7146
          31.321
          30.1519
          30.1518
          30.1517
          30.1516
          28.0832
          26.1813
          24.4014
          22.7015
          21.0413
          21.0514
          23.1187
          25.2349
          27.4497
          29.814
          29.8141
          29.8143
          29.8144
          31.1061
          32.6133
          34.3496
          34.3498
          34.3498
          34.3499
          34.3448
          34.585
          35.0731
          35.0731
          35.0731
          35.073
          33.3909
          31.9478
          30.732
          30.7319
          30.7318
          30.7317
          28.5505
          26.536
          24.6415
          22.8241
          21.0443
          21.0553
          23.268
          25.5285
          27.8855
          30.3927
          30.3928
          30.393
          30.3931
          31.7387
          33.3031
          35.0989
          35.099
          35.0992
          35.0992
          35.1034
          35.3538
          35.8529
          35.8529
          35.8528
          35.8527
          34.1167
          32.6216
          31.3569
          31.3568
          31.3566
          31.3564
          29.0605
          26.929
          24.9112
          22.9629
          21.048
          21.0584
          23.4349
          25.8522
          28.3596
          31.0139
          31.0142
          31.0145
          31.0147
          32.4167
          34.0407
          35.8985
          35.8987
          35.899
          35.8992
          35.914
          36.1751
          36.685
          36.6849
          36.6847
          36.6845
          34.8926
          33.3435
          32.0273
          32.0271
          32.0268
          32.0265
          29.6204
          27.3717
          25.2216
          23.1257
          21.0508
          21.0674
          23.6262
          26.2187
          28.8805
          31.6785
          31.6789
          31.6796
          31.68
          33.1411
          34.8267
          36.7484
          36.749
          36.7499
          36.7503
          36.7785
          37.0508
          37.5696
          37.5693
          37.5686
          37.5683
          35.7193
          34.1144
          32.7443
          32.7439
          32.7431
          32.7426
          30.2436
          27.8853
          25.5956
          23.3245
          21.0604
          21.0561
          23.8696
          26.6534
          29.468
          32.3865
          32.3876
          32.3896
          32.3907
          33.9132
          35.6617
          37.6481
          37.6496
          37.6524
          37.6538
          37.7021
          37.9858
          38.5075
          38.5066
          38.5047
          38.5037
          36.5984
          34.9368
          33.5093
          33.5082
          33.506
          33.5048
          30.9537
          28.5113
          26.0736
          23.5956
          21.0486
          21.1338
          24.1811
          27.2289
          30.1627
          33.1371
          33.1402
          33.1462
          33.1493
          34.7367
          36.5467
          38.595
          38.5995
          38.6081
          38.6125
          38.6981
          38.9931
          39.5009
          39.4979
          39.492
          39.4889
          37.5333
          35.8163
          34.3252
          34.3218
          34.3151
          34.3116
          31.7927
          29.323
          26.7515
          23.9646
          21.1328
          20.8706
          24.8005
          28.0579
          31.0665
          33.9249
          33.9343
          33.9535
          33.9628
          35.623
          37.485
          39.5805
          39.5941
          39.622
          39.6355
          39.8036
          40.1082
          40.5559
          40.5466
          40.5274
          40.518
          38.5342
          36.7702
          35.1995
          35.1891
          35.1678
          35.1573
          32.8208
          30.4684
          27.7698
          24.6962
          20.8523
          22.0123
          25.545
          29.6213
          32.3213
          34.7302
          34.7624
          34.8205
          34.8526
          36.6084
          38.4922
          40.5745
          40.6213
          40.7064
          40.7531
          41.1158
          41.4246
          41.6932
          41.6611
          41.6026
          41.5704
          39.6337
          37.8488
          36.156
          36.1202
          36.0553
          36.0194
          34.098
          32.1374
          29.6576
          25.5973
          22.0786
          17.622
          29.35
          32.3273
          34.0379
          35.5051
          35.5811
          35.7921
          35.8681
          37.8454
          39.5985
          41.5052
          41.6175
          41.9251
          42.0374
          42.8961
          43.1819
          42.9622
          42.8853
          42.6737
          42.5968
          40.9051
          39.2365
          37.2499
          37.1648
          36.9293
          36.8443
          35.6514
          34.4705
          32.8399
          29.8083
          17.3756
          35.9667
          36.039
          36.1333
          36.2436
          36.195
          36.2873
          36.7016
          37.6088
          39.6156
          40.9891
          42.0456
          42.5499
          43.1674
          44.103
          45.6271
          45.8414
          44.816
          44.1268
          43.7051
          43.4
          42.6073
          41.262
          39.1323
          38.1459
          37.6819
          37.5547
          37.5479
          37.3807
          37.2332
          37.1226
          37.0432
          35.9886
          36.047
          36.1465
          36.2736
          36.4647
          36.7995
          37.4063
          38.4168
          39.7055
          41.1174
          42.3796
          43.4782
          44.4356
          45.3484
          46.0266
          46.2401
          45.9568
          45.4039
          44.7696
          43.943
          42.8254
          41.4089
          40.0223
          38.9121
          38.2283
          37.8296
          37.5791
          37.3932
          37.2385
          37.1284
          37.0651
          36.0159
          36.0638
          36.1708
          36.3495
          36.6337
          37.0841
          37.7716
          38.7299
          39.9448
          41.373
          43.0386
          44.5988
          45.7648
          46.6296
          47.1896
          47.3908
          47.2303
          46.763
          46.0215
          44.9518
          43.4206
          41.7665
          40.3917
          39.3147
          38.5344
          38.0082
          37.6573
          37.4165
          37.2488
          37.1407
          37.0911
          36.0351
          36.0714
          36.1838
          36.3794
          36.6925
          37.1751
          37.8785
          38.8319
          40.0346
          41.5012
          43.4152
          45.2452
          46.4803
          47.3498
          47.8899
          48.0902
          47.9516
          47.4956
          46.7246
          45.5701
          43.789
          41.9134
          40.5172
          39.4345
          38.633
          38.0707
          37.6885
          37.4289
          37.2539
          37.1461
          37.1102
        </DataArray>
      </PointData>
      <CellData>
      </CellData>
      <Points>
        <DataArray type="Float32" NumberOfComponents="3" format="ascii">
          0.1 0.005 0.0
          0.0966667 0.005 0.0
          0.0933333 0.005 0.0
          0.09 0.005 0.0
          0.0866667 0.005 0.0
          0.0833333 0.005 0.0
          0.08 0.005 0.0
          0.0766667 0.005 0.0
          0.0733333 0.005 0.0
          0.07 0.005 0.0
          0.0666667 0.005 0.0
          0.0633333 0.005 0.0
          0.06 0.005 0.0
          0.0566667 0.005 0.0
          0.0533333 0.005 0.0
          0.05 0.005 0.0
          0.0466667 0.005 0.0
          0.0433333 0.005 0.0
          0.04 0.005 0.0
          0.0366667 0.005 0.0
          0.0333333 0.005 0.0
          0.03 0.005 0.0
          0.0266667 0.005 0.0
          0.0233333 0.005 0.0
          0.02 0.005 0.0
          0.0166667 0.005 0.0
          0.0133333 0.005 0.0
          0.01 0.005 0.0
          0.00666667 0.005 0.0
          0.00333333 0.005 0.0
          0 0.005 0.0
          0.1 0.00166667 0.0
          0.0966667 0.00166667 0.0
          0.0933333 0.00166667 0.0
          0.09 0.00166667 0.0
          0.0866667 0.00166667 0.0
          0.0833333 0.00166667 0.0
          0.08 0.00166667 0.0
          0.0766667 0.00166667 0.0
          0.0733333 0.00166667 0.0
          0.07 0.00166667 0.0
          0.0666667 0.00166667 0.0
          0.0633333 0.00166667 0.0
          0.06 0.00166667 0.0
          0.0566667 0.00166667 0.0
          0.0533333 0.00166667 0.0
          0.05 0.00166667 0.0
          0.0466667 0.00166667 0.0
          0.0433333 0.00166667 0.0
          0.04 0.00166667 0.0
          0.0366667 0.00166667 0.0
          0.0333333 0.00166667 0.0
          0.03 0.00166667 0.0
          0.0266667 0.00166667 0.0
          0.0233333 0.00166667 0.0
          0.02 0.00166667 0.0
          0.0166667 0.00166667 0.0
          0.0133333 0.00166667 0.0
          0.01 0.00166667 0.0
          0.00666667 0.00166667 0.0
          0.00333333 0.00166667 0.0
          0 0.00166667 0.0
          0.1 -0.00166667 0.0
          0.0966667 -0.00166667 0.0
          0.0933333 -0.00166667 0.0
          0.09 -0.00166667 0.0
          0.0866667 -0.00166667 0.0
          0.0833333 -0.00166667 0.0
          0.08 -0.00166667 0.0
          0.0766667 -0.00166667 0.0
          0.0733333 -0.00166667 0.0
          0.07 -0.00166667 0.0
          0.0666667 -0.00166667 0.0
          0.0633333 -0.00166667 0.0
          0.06 -0.00166667 0.0
          0.0566667 -0.00166667 0.0
          0.0533333 -0.00166667 0.0
          0.05 -0.00166667 0.0
          0.0466667 -0.00166667 0.0
          0.0433333 -0.00166667 0.0
          0.04 -0.00166667 0.0
          0.0366667 -0.00166667 0.0
          0.0333333 -0.00166667 0.0
          0.03 -0.00166667 0.0
          0.0266667 -0.00166667 0.0
          0.0233333 -0.00166667 0.0
          0.02 -0.00166667 0.0
          0.0166667 -0.00166667 0.0
          0.0133333 -0.00166667 0.0
          0.01 -0.00166667 0.0
          0.00666667 -0.00166667 0.0
          0.00333333 -0.00166667 0.0
          0 -0.00166667 0.0
          0.1 -0.005 0.0
          0.0966667 -0.005 0.0
          0.0933333 -0.005 0.0
          0.09 -0.005 0.0
          0.0866667 -0.005 0.0
          0.0833333 -0.005 0.0
          0.08 -0.005 0.0
          0.0766667 -0.005 0.0
          0.0733333 -0.005 0.0
          0.07 -0.005 0.0
          0.0666667 -0.005 0.0
          0.0633333 -0.005 0.0
          0.06 -0.005 0.0
          0.0566667 -0.005 0.0
          0.0533333 -0.005 0.0
          0.05 -0.005 0.0
          0.0466667 -0.005 0.0
          0.0433333 -0.005 0.0
          0.04 -0.005 0.0
          0.0366667 -0.005 0.0
          0.0333333 -0.005 0.0
          0.03 -0.005 0.0
          0.0266667 -0.005 0.0
          0.0233333 -0.005 0.0
          0.02 -0.005 0.0
          0.0166667 -0.005 0.0
          0.0133333 -0.005 0.0
          0.01 -0.005 0.0
          0.00666667 -0.005 0.0
          0.00333333 -0.005 0.0
          0 -0.005 0.0
          0.1 -0.00833333 0.0
          0.0966667 -0.00833333 0.0
          0.0933333 -0.00833333 0.0
          0.09 -0.00833333 0.0
          0.0866667 -0.00833333 0.0
          0.0833333 -0.00833333 0.0
          0.08 -0.00833333 0.0
          0.0766667 -0.00833333 0.0
          0.0733333 -0.00833333 0.0
          0.07 -0.00833333 0.0
          0.0666667 -0.00833333 0.0
          0.0633333 -0.00833333 0.0
          0.06 -0.00833333 0.0
          0.0566667 -0.00833333 0.0
          0.0533333 -0.00833333 0.0
          0.05 -0.00833333 0.0
          0.0466667 -0.00833333 0.0
          0.0433333 -0.00833333 0.0
          0.04 -0.00833333 0.0
          0.0366667 -0.00833333 0.0
          0.0333333 -0.00833333 0.0
          0.03 -0.00833333 0.0
          0.0266667 -0.00833333 0.0
          0.0233333 -0.00833333 0.0
          0.02 -0.00833333 0.0
          0.0166667 -0.00833333 0.0
          0.0133333 -0.00833333 0.0
          0.01 -0.00833333 0.0
          0.00666667 -0.00833333 0.0
          0.00333333 -0.00833333 0.0
          0 -0.00833333 0.0
          0.1 -0.0116667 0.0
          0.0966667 -0.0116667 0.0
          0.0933333 -0.0116667 0.0
          0.09 -0.0116667 0.0
          0.0866667 -0.0116667 0.0
          0.0833333 -0.0116667 0.0
          0.08 -0.0116667 0.0
          0.0766667 -0.0116667 0.0
          0.0733333 -0.0116667 0.0
          0.07 -0.0116667 0.0
          0.0666667 -0.0116667 0.0
          0.0633333 -0.0116667 0.0
          0.06 -0.0116667 0.0
          0.0566667 -0.0116667 0.0
          0.0533333 -0.0116667 0.0
          0.05 -0.0116667 0.0
          0.0466667 -0.0116667 0.0
          0.0433333 -0.0116667 0.0
          0.04 -0.0116667 0.0
          0.0366667 -0.0116667 0.0
          0.0333333 -0.0116667 0.0
          0.03 -0.0116667 0.0
          0.0266667 -0.0116667 0.0
          0.0233333 -0.0116667 0.0
          0.02 -0.0116667 0.0
          0.0166667 -0.0116667 0.0
          0.0133333 -0.0116667 0.0
          0.01 -0.0116667 0.0
          0.00666667 -0.0116667 0.0
          0.00333333 -0.0116667 0.0
          0 -0.0116667 0.0
          0.1 -0.015 0.0
          0.0966667 -0.015 0.0
          0.0933333 -0.015 0.0
          0.09 -0.015 0.0
          0.0866667 -0.015 0.0
          0.0833333 -0.015 0.0
          0.08 -0.015 0.0
          0.0766667 -0.015 0.0
          0.0733333 -0.015 0.0
          0.07 -0.015 0.0
          0.0666667 -0.015 0.0
          0.0633333 -0.015 0.0
          0.06 -0.015 0.0
          0.0566667 -0.015 0.0
          0.0533333 -0.015 0.0
          0.05 -0.015 0.0
          0.0466667 -0.015 0.0
          0.0433333 -0.015 0.0
          0.04 -0.015 0.0
          0.0366667 -0.015 0.0
          0.0333333 -0.015 0.0
          0.03 -0.015 0.0
          0.0266667 -0.015 0.0
          0.0233333 -0.015 0.0
          0.02 -0.015 0.0
          0.0166667 -0.015 0.0
          0.0133333 -0.015 0.0
          0.01 -0.015 0.0
          0.00666667 -0.015 0.0
          0.00333333 -0.015 0.0
          0 -0.015 0.0
          0.1 -0.0183333 0.0
          0.0966667 -0.0183333 0.0
          0.0933333 -0.0183333 0.0
          0.09 -0.0183333 0.0
          0.0866667 -0.0183333 0.0
          0.0833333 -0.0183333 0.0
          0.08 -0.0183333 0.0
          0.0766667 -0.0183333 0.0
          0.0733333 -0.0183333 0.0
          0.07 -0.0183333 0.0
          0.0666667 -0.0183333 0.0
          0.0633333 -0.0183333 0.0
          0.06 -0.0183333 0.0
          0.0566667 -0.0183333 0.0
          0.0533333 -0.0183333 0.0
          0.05 -0.0183333 0.0
          0.0466667 -0.0183333 0.0
          0.0433333 -0.0183333 0.0
          0.04 -0.0183333 0.0
          0.0366667 -0.0183333 0.0
          0.0333333 -0.0183333 0.0
          0.03 -0.0183333 0.0
          0.0266667 -0.0183333 0.0
          0.0233333 -0.0183333 0.0
          0.02 -0.0183333 0.0
          0.0166667 -0.0183333 0.0
          0.0133333 -0.0183333 0.0
          0.01 -0.0183333 0.0
          0.00666667 -0.0183333 0.0
          0.00333333 -0.0183333 0.0
          0 -0.0183333 0.0
          0.1 -0.0216667 0.0
          0.0966667 -0.0216667 0.0
          0.0933333 -0.0216667 0.0
          0.09 -0.0216667 0.0
          0.0866667 -0.0216667 0.0
          0.0833333 -0.0216667 0.0
          0.08 -0.0216667 0.0
          0.0766667 -0.0216667 0.0
          0.0733333 -0.0216667 0.0
          0.07 -0.0216667 0.0
          0.0666667 -0.0216667 0.0
          0.0633333 -0.0216667 0.0
          0.06 -0.0216667 0.0
          0.0566667 -0.0216667 0.0
          0.0533333 -0.0216667 0.0
          0.05 -0.0216667 0.0
          0.0466667 -0.0216667 0.0
          0.0433333 -0.0216667 0.0
          0.04 -0.0216667 0.0
          0.0366667 -0.0216667 0.0
          0.0333333 -0.0216667 0.0
          0.03 -0.0216667 0.0
          0.0266667 -0.0216667 0.0
          0.0233333 -0.0216667 0.0
          0.02 -0.0216667 0.0
          0.0166667 -0.0216667 0.0
          0.0133333 -0.0216667 0.0
          0.01 -0.0216667 0.0
          0.00666667 -0.0216667 0.0
          0.00333333 -0.0216667 0.0
          0 -0.0216667 0.0
          0.1 -0.025 0.0
          0.0966667 -0.025 0.0
          0.0933333 -0.025 0.0
          0.09 -0.025 0.0
          0.0866667 -0.025 0.0
          0.0833333 -0.025 0.0
          0.08 -0.025 0.0
          0.0766667 -0.025 0.0
          0.0733333 -0.025 0.0
          0.07 -0.025 0.0
          0.0666667 -0.025 0.0
          0.0633333 -0.025 0.0
          0.06 -0.025 0.0
          0.0566667 -0.025 0.0
          0.0533333 -0.025 0.0
          0.05 -0.025 0.0
          0.0466667 -0.025 0.0
          0.0433333 -0.025 0.0
          0.04 -0.025 0.0
          0.0366667 -0.025 0.0
          0.0333333 -0.025 0.0
          0.03 -0.025 0.0
          0.0266667 -0.025 0.0
          0.0233333 -0.025 0.0
          0.02 -0.025 0.0
          0.0166667 -0.025 0.0
          0.0133333 -0.025 0.0
          0.01 -0.025 0.0
          0.00666667 -0.025 0.0
          0.00333333 -0.025 0.0
          0 -0.025 0.0
          0.1 -0.0283333 0.0
          0.0966667 -0.0283333 0.0
          0.0933333 -0.0283333 0.0
          0.09 -0.0283333 0.0
          0.0866667 -0.0283333 0.0
          0.0833333 -0.0283333 0.0
          0.08 -0.0283333 0.0
          0.0766667 -0.0283333 0.0
          0.0733333 -0.0283333 0.0
          0.07 -0.0283333 0.0
          0.0666667 -0.0283333 0.0
          0.0633333 -0.0283333 0.0
          0.06 -0.0283333 0.0
          0.0566667 -0.0283333 0.0
          0.0533333 -0.0283333 0.0
          0.05 -0.0283333 0.0
          0.0466667 -0.0283333 0.0
          0.0433333 -0.0283333 0.0
          0.04 -0.0283333 0.0
          0.0366667 -0.0283333 0.0
          0.0333333 -0.0283333 0.0
          0.03 -0.0283333 0.0
          0.0266667 -0.0283333 0.0
          0.0233333 -0.0283333 0.0
          0.02 -0.0283333 0.0
          0.0166667 -0.0283333 0.0
          0.0133333 -0.0283333 0.0
          0.01 -0.0283333 0.0
          0.00666667 -0.0283333 0.0
          0.00333333 -0.0283333 0.0
          0 -0.0283333 0.0
          0.1 -0.0316667 0.0
          0.0966667 -0.0316667 0.0
          0.0933333 -0.0316667 0.0
          0.09 -0.0316667 0.0
          0.0866667 -0.0316667 0.0
          0.0833333 -0.0316667 0.0
          0.08 -0.0316667 0.0
          0.0766667 -0.0316667 0.0
          0.0733333 -0.0316667 0.0
          0.07 -0.0316667 0.0
          0.0666667 -0.0316667 0.0
          0.0633333 -0.0316667 0.0
          0.06 -0.0316667 0.0
          0.0566667 -0.0316667 0.0
          0.0533333 -0.0316667 0.0
          0.05 -0.0316667 0.0
          0.0466667 -0.0316667 0.0
          0.0433333 -0.0316667 0.0
          0.04 -0.0316667 0.0
          0.0366667 -0.0316667 0.0
          0.0333333 -0.0316667 0.0
          0.03 -0.0316667 0.0
          0.0266667 -0.0316667 0.0
          0.0233333 -0.0316667 0.0
          0.02 -0.0316667 0.0
          0.0166667 -0.0316667 0.0
          0.0133333 -0.0316667 0.0
          0.01 -0.0316667 0.0
          0.00666667 -0.0316667 0.0
          0.00333333 -0.0316667 0.0
          0 -0.0316667 0.0
          0.1 -0.035 0.0
          0.0966667 -0.035 0.0
          0.0933333 -0.035 0.0
          0.09 -0.035 0.0
          0.0866667 -0.035 0.0
          0.0833333 -0.035 0.0
          0.08 -0.035 0.0
          0.0766667 -0.035 0.0
          0.0733333 -0.035 0.0
          0.07 -0.035 0.0
          0.0666667 -0.035 0.0
          0.0633333 -0.035 0.0
          0.06 -0.035 0.0
          0.0566667 -0.035 0.0
          0.0533333 -0.035 0.0
          0.05 -0.035 0.0