<?xml version="1.0"?>
<VTKFile type="UnstructuredGrid" version="0.1" byte_order="LittleEndian">
  <UnstructuredGrid>
    <Piece NumberOfPoints="961" NumberOfCells="900">
      <PointData Scalars="Temperature">
        <DataArray type="Float32" Name="Temperature" format="ascii">
          50.6973
          50.6973
          50.6973
          50.6973
          50.6973
          50.6973
          50.6973
          50.6973
          50.6973
          50.6973
          50.6973
          50.6973
          50.6973
          50.6973
          50.6973
          50.6973
          50.6973
          50.6973
          50.6973
          50.6973
          50.6973
          50.6973
          50.6973
          50.6973
          50.6973
          50.6973
          50.6973
          50.6973
          50.6973
          50.6973
          50.6973
          50.6973
          50.6973
          50.6973
          50.6973
          50.6973
          50.6973
          50.6973
          50.6973
          50.6973
          50.6973
          50.6973
          50.6973
          50.6973
          50.6973
          50.6973
          50.6973
          50.6973
          50.6973
          50.6973
          50.6973
          50.6973
          50.6973
          50.6973
          50.6973
          50.6973
          50.6973
          50.6973
          50.6973
          50.6973
          50.6973
          50.6973
          50.6973
          50.6973
          50.6973
          50.6973
          50.6973
          50.6973
          50.6973
          50.6973
          50.6973
          50.6973
          50.6973
          50.6973
          50.6973
          50.6973
          50.6973
          50.6973
          50.6973
          50.6973
          50.6973
          50.6973
          50.6973
          50.6973
          50.6973
          50.6973
          50.6973
          50.6973
          50.6973
          50.6973
          50.6973
          50.6973
          50.6973
          50.6973
          50.6973
          50.6973
          50.6973
          78.9393
          78.9419
          78.9425
          78.9412
          50.6973
          50.6973
          79.3184
          79.3199
          79.3199
          79.3184
          50.6973
          50.6973
          79.3568
          79.3583
          79.3583
          79.3568
          50.6973
          50.6973
          79.0257
          79.027
          79.0265
          79.0241
          50.6973
          50.6973
          50.6973
          50.6973
          50.6973
          50.6973
          50.6973
          50.6973
          50.6973
          78.9429
          78.9439
          78.9444
          78.9442
          50.6973
          50.6973
          79.3213
          79.3216
          79.3216
          79.3213
          50.6973
          50.6973
          79.3597
          79.36
          79.36
          79.3597
          50.6973
          50.6973
          79.0287
          79.0288
          79.0284
          79.0276
          50.6973
          50.6973
          50.6973
          50.6973
          50.6973
          50.6973
          50.6973
          50.6973
          50.6973
          78.9461
          78.9469
          78.9474
          78.9474
          50.6973
          50.6973
          79.3239
          79.3241
          79.3241
          79.3239
          50.6973
          50.6973
          79.3624
          79.3625
          79.3625
          79.3623
          50.6973
          50.6973
          79.0318
          79.0318
          79.0314
          79.0307
          50.6973
          50.6973
          50.6973
          50.6973
          50.6973
          50.6973
          50.6973
          50.6973
          50.6973
          78.9498
          78.9506
          78.951
          78.951
          50.6973
          50.6973
          79.3268
          79.3269
          79.3269
          79.3268
          50.6973
          50.6973
          79.3653
          79.3654
          79.3654
          79.3652
          50.6973
          50.6973
          79.0353
          79.0353
          79.0349
          79.0343
          50.6973
          50.6973
          50.6973
          50.6973
          50.6973
          50.6973
          50.6973
          50.6973
          50.6973
          78.954
          78.9548
          78.9552
          78.9552
          50.6973
          50.6973
          79.33
          79.3301
          79.3301
          79.33
          50.6973
          50.6973
          79.3684
          79.3685
          79.3685
          79.3684
          50.6973
          50.6973
          79.0393
          79.0393
          79.039
          79.0383
          50.6973
          50.6973
          50.6973
          50.6973
          50.6973
          50.6973
          50.6973
          50.6973
          50.6973
          78.9587
          78.9595
          78.9599
          78.9599
          50.6973
          50.6973
          79.3334
          79.3335
          79.3335
          79.3334
          50.6973
          50.6973
          79.3718
          79.3719
          79.3719
          79.3718
          50.6973
          50.6973
          79.0438
          79.0438
          79.0435
          79.0428
          50.6973
          50.6973
          50.6973
          50.6973
          50.6973
          50.6973
          50.6973
          50.6973
          50.6973
          78.964
          78.9647
          78.9651
          78.9652
          50.6973
          50.6973
          79.3371
          79.3372
          79.3372
          79.3371
          50.6973
          50.6973
          79.3755
          79.3756
          79.3756
          79.3755
          50.6973
          50.6973
          79.0488
          79.0488
          79.0484
          79.0478
          50.6973
          50.6973
          50.6973
          50.6973
          50.6973
          50.6973
          50.6973
          50.6973
          50.6973
          78.9697
          78.9705
          78.9709
          78.9709
          50.6973
          50.6973
          79.341
          79.3411
          79.3411
          79.341
          50.6973
          50.6973
          79.3794
          79.3795
          79.3795
          79.3794
          50.6973
          50.6973
          79.0542
          79.0542
          79.0539
          79.0532
          50.6973
          50.6973
          50.6973
          50.6973
          50.6973
          50.6973
          50.6973
          50.6973
          50.6973
          78.976
          78.9767
          78.9771
          78.9772
          50.6973
          50.6973
          79.3452
          79.3453
          79.3453
          79.3452
          50.6973
          50.6973
          79.3836
          79.3837
          79.3837
          79.3836
          50.6973
          50.6973
          79.0601
          79.0601
          79.0598
          79.0592
          50.6973
          50.6973
          50.6973
          50.6973
          50.6973
          50.6973
          50.6973
          50.6973
          50.6973
          78.9828
          78.9835
          78.9839
          78.984
          50.6973
          50.6973
          79.3496
          79.3497
          79.3497
          79.3496
          50.6973
          50.6973
          79.3881
          79.3882
          79.3882
          79.3881
          50.6973
          50.6973
          79.0665
          79.0665
          79.0662
          79.0655
          50.6973
          50.6973
          50.6973
          50.6973
          50.6973
          50.6973
          50.6973
          50.6973
          50.6973
          78.9901
          78.9909
          78.9913
          78.9913
          50.6973
          50.6973
          79.3543
          79.3544
          79.3544
          79.3543
          50.6973
          50.6973
          79.3928
          79.3929
          79.3929
          79.3928
          50.6973
          50.6973
          79.0733
          79.0733
          79.073
          79.0724
          50.6973
          50.6973
          50.6973
          50.6973
          50.6973
          50.6973
          50.6973
          50.6973
          50.6973
          78.9979
          78.9987
          78.9991
          78.9991
          50.6973
          50.6973
          79.3593
          79.3594
          79.3594
          79.3593
          50.6973
          50.6973
          79.3978
          79.3979
          79.3979
          79.3978
          50.6973
          50.6973
          79.0806
          79.0806
          79.0803
          79.0797
          50.6973
          50.6973
          50.6973
          50.6973
          50.6973
          50.6973
          50.6973
          50.6973
          50.6973
          79.0063
          79.007
          79.0074
          79.0075
          50.6973
          50.6973
          79.3645
          79.3646
          79.3646
          79.3645
          50.6973
          50.6973
          79.403
          79.4031
          79.4031
          79.403
          50.6973
          50.6973
          79.0884
          79.0884
          79.0881
          79.0875
          50.6973
          50.6973
          50.6973
          50.6973
          50.6973
          50.6973
          50.6973
          50.6973
          50.6973
          79.0152
          79.0159
          79.0163
          79.0164
          50.6973
          50.6973
          79.37
          79.3701
          79.3701
          79.37
          50.6973
          50.6973
          79.4085
          79.4086
          79.4086
          79.4085
          50.6973
          50.6973
          79.0967
          79.0967
          79.0963
          79.0957
          50.6973
          50.6973
          50.6973
          50.6973
          50.6973
          50.6973
          50.6973
          50.6973
          50.6973
          79.0245
          79.0253
          79.0257
          79.0257
          50.6973
          50.6973
          79.3758
          79.3759
          79.3759
          79.3758
          50.6973
          50.6973
          79.4143
          79.4143
          79.4143
          79.4142
          50.6973
          50.6973
          79.1054
          79.1054
          79.105
          79.1044
          50.6973
          50.6973
          50.6973
          50.6973
          50.6973
          50.6973
          50.6973
          50.6973
          50.6973
          79.0344
          79.0352
          79.0356
          79.0357
          50.6973
          50.6973
          79.3818
          79.3819
          79.3819
          79.3818
          50.6973
          50.6973
          79.4203
          79.4204
          79.4204
          79.4203
          50.6973
          50.6973
          79.1146
          79.1145
          79.1142
          79.1136
          50.6973
          50.6973
          50.6973
          50.6973
          50.6973
          50.6973
          50.6973
          50.6973
          50.6973
          79.0449
          79.0456
          79.046
          79.0461
          50.6973
          50.6973
          79.388
          79.3881
          79.3882
          79.3881
          50.6973
          50.6973
          79.4265
          79.4266
          79.4266
          79.4265
          50.6973
          50.6973
          79.1242
          79.1242
          79.1239
          79.1232
          50.6973
          50.6973
          50.6973
          50.6973
          50.6973
          50.6973
          50.6973
          50.6973
          50.6973
          79.0558
          79.0566
          79.057
          79.057
          50.6973
          50.6973
          79.3946
          79.3947
          79.3947
          79.3946
          50.6973
          50.6973
          79.4331
          79.4332
          79.4332
          79.4331
          50.6973
          50.6973
          79.1343
          79.1343
          79.134
          79.1334
          50.6973
          50.6973
          50.6973
          50.6973
          50.6973
          50.6973
          50.6973
          50.6973
          50.6973
          79.0673
          79.068
          79.0685
          79.0685
          50.6973
          50.6973
          79.4013
          79.4014
          79.4015
          79.4014
          50.6973
          50.6973
          79.4399
          79.44
          79.4399
          79.4398
          50.6973
          50.6973
          79.1449
          79.1449
          79.1445
          79.1439
          50.6973
          50.6973
          50.6973
          50.6973
          50.6973
          50.6973
          50.6973
          50.6973
          50.6973
          79.0792
          79.08
          79.0805
          79.0806
          50.6973
          50.6973
          79.4083
          79.4085
          79.4086
          79.4085
          50.6973
          50.6973
          79.447
          79.447
          79.447
          79.4468
          50.6973
          50.6973
          79.156
          79.156
          79.1555
          79.1549
          50.6973
          50.6973
          50.6973
          50.6973
          50.6973
          50.6973
          50.6973
          50.6973
          50.6973
          79.0914
          79.0923
          79.0931
          79.0933
          50.6973
          50.6973
          79.4154
          79.4156
          79.416
          79.416
          50.6973
          50.6973
          79.4545
          79.4544
          79.4542
          79.454
          50.6973
          50.6973
          79.1678
          79.1676
          79.1669
          79.1662
          50.6973
          50.6973
          50.6973
          50.6973
          50.6973
          50.6973
          50.6973
          50.6973
          50.6973
          79.1036
          79.1049
          79.1065
          79.1071
          50.6973
          50.6973
          79.4223
          79.4229
          79.4239
          79.4243
          50.6973
          50.6973
          79.4625
          79.4622
          79.4615
          79.4611
          50.6973
          50.6973
          79.1805
          79.1799
          79.1784
          79.1773
          50.6973
          50.6973
          50.6973
          50.6973
          50.6973
          50.6973
          50.6973
          50.6973
          50.6973
          79.1144
          79.117
          79.1212
          79.1234
          50.6973
          50.6973
          79.4278
          79.4296
          79.4327
          79.4344
          50.6973
          50.6973
          79.4719
          79.4708
          79.4686
          79.4674
          50.6973
          50.6973
          79.1957
          79.1935
          79.1894
          79.1869
          50.6973
          50.6973
          50.6973
          50.6973
          50.6973
          50.6973
          50.6973
          50.6973
          50.6973
          79.1202
          79.1257
          79.1402
          79.1454
          50.6973
          50.6973
          79.4295
          79.4336
          79.4449
          79.4489
          50.6973
          50.6973
          79.4844
          79.4817
          79.4739
          79.471
          50.6973
          50.6973
          79.2164
          79.2113
          79.197
          79.1916
          50.6973
          50.6973
          50.6973
          50.6973
          50.6973
          78.8662
          78.9441
          78.9986
          79.0479
          79.1025
          79.1311
          79.1593
          79.1991
          79.2807
          79.3427
          79.4077
          79.4373
          79.4597
          79.4831
          79.5174
          79.5251
          79.5094
          79.4951
          79.4797
          79.4573
          79.4034
          79.3465
          79.2682
          79.2294
          79.2014
          79.1727
          79.118
          79.0704
          79.0214
          78.9671
          78.8893
          78.898
          78.9516
          79.0013
          79.0486
          79.0926
          79.1338
          79.1749
          79.2249
          79.2825
          79.3448
          79.3997
          79.4451
          79.479
          79.5065
          79.5258
          79.5335
          79.5283
          79.5134
          79.4906
          79.4552
          79.4075
          79.3495
          79.2935
          79.2443
          79.2034
          79.1621
          79.1181
          79.0713
          79.0244
          78.9747
          78.9211
          78.9333
          78.966
          79.0056
          79.0486
          79.0923
          79.1362
          79.1824
          79.2328
          79.2884
          79.3475
          79.4094
          79.464
          79.5042
          79.5327
          79.5508
          79.5578
          79.5538
          79.5388
          79.5124
          79.473
          79.4182
          79.3576
          79.3018
          79.2515
          79.2054
          79.1613
          79.117
          79.0725
          79.0289
          78.9893
          78.9565
          78.9593
          78.972
          79.0076
          79.0491
          79.0925
          79.1372
          79.1843
          79.2351
          79.2902
          79.3496
          79.4163
          79.4769
          79.519
          79.5482
          79.5661
          79.5731
          79.5691
          79.5538
          79.5266
          79.4856
          79.4258
          79.3606
          79.3044
          79.2535
          79.2063
          79.1613
          79.1169
          79.0731
          79.0312
          78.9953
          78.9825
        </DataArray>
      </PointData>
      <CellData>
      </CellData>
      <Points>
        <DataArray type="Float32" NumberOfComponents="3" format="ascii">
          0.039 0.00195 0.0
          0.0377 0.00195 0.0
          0.0364 0.00195 0.0
          0.0351 0.00195 0.0
          0.0338 0.00195 0.0
          0.0325 0.00195 0.0
          0.0312 0.00195 0.0
          0.0299 0.00195 0.0
          0.0286 0.00195 0.0
          0.0273 0.00195 0.0
          0.026 0.00195 0.0
          0.0247 0.00195 0.0
          0.0234 0.00195 0.0
          0.0221 0.00195 0.0
          0.0208 0.00195 0.0
          0.0195 0.00195 0.0
          0.0182 0.00195 0.0
          0.0169 0.00195 0.0
          0.0156 0.00195 0.0
          0.0143 0.00195 0.0
          0.013 0.00195 0.0
          0.0117 0.00195 0.0
          0.0104 0.00195 0.0
          0.0091 0.00195 0.0
          0.0078 0.00195 0.0
          0.0065 0.00195 0.0
          0.0052 0.00195 0.0
          0.0039 0.00195 0.0
          0.0026 0.00195 0.0
          0.0013 0.00195 0.0
          0 0.00195 0.0
          0.039 0.00065 0.0
          0.0377 0.00065 0.0
          0.0364 0.00065 0.0
          0.0351 0.00065 0.0
          0.0338 0.00065 0.0
          0.0325 0.00065 0.0
          0.0312 0.00065 0.0
          0.0299 0.00065 0.0
          0.0286 0.00065 0.0
          0.0273 0.00065 0.0
          0.026 0.00065 0.0
          0.0247 0.00065 0.0
          0.0234 0.00065 0.0
          0.0221 0.00065 0.0
          0.0208 0.00065 0.0
          0.0195 0.00065 0.0
          0.0182 0.00065 0.0
          0.0169 0.00065 0.0
          0.0156 0.00065 0.0
          0.0143 0.00065 0.0
          0.013 0.00065 0.0
          0.0117 0.00065 0.0
          0.0104 0.00065 0.0
          0.0091 0.00065 0.0
          0.0078 0.00065 0.0
          0.0065 0.00065 0.0
          0.0052 0.00065 0.0
          0.0039 0.00065 0.0
          0.0026 0.00065 0.0
          0.0013 0.00065 0.0
          0 0.00065 0.0
          0.039 -0.00065 0.0
          0.0377 -0.00065 0.0
          0.0364 -0.00065 0.0
          0.0351 -0.00065 0.0
          0.0338 -0.00065 0.0
          0.0325 -0.00065 0.0
          0.0312 -0.00065 0.0
          0.0299 -0.00065 0.0
          0.0286 -0.00065 0.0
          0.0273 -0.00065 0.0
          0.026 -0.00065 0.0
          0.0247 -0.00065 0.0
          0.0234 -0.00065 0.0
          0.0221 -0.00065 0.0
          0.0208 -0.00065 0.0
          0.0195 -0.00065 0.0
          0.0182 -0.00065 0.0
          0.0169 -0.00065 0.0
          0.0156 -0.00065 0.0
          0.0143 -0.00065 0.0
          0.013 -0.00065 0.0
          0.0117 -0.00065 0.0
          0.0104 -0.00065 0.0
          0.0091 -0.00065 0.0
          0.0078 -0.00065 0.0
          0.0065 -0.00065 0.0
          0.0052 -0.00065 0.0
          0.0039 -0.00065 0.0
          0.0026 -0.00065 0.0
          0.0013 -0.00065 0.0
          0 -0.00065 0.0
          0.039 -0.00195 0.0
          0.0377 -0.00195 0.0
          0.0364 -0.00195 0.0
          0.0351 -0.00195 0.0
          0.0338 -0.00195 0.0
          0.0325 -0.00195 0.0
          0.0312 -0.00195 0.0
          0.0299 -0.00195 0.0
          0.0286 -0.00195 0.0
          0.0273 -0.00195 0.0
          0.026 -0.00195 0.0
          0.0247 -0.00195 0.0
          0.0234 -0.00195 0.0
          0.0221 -0.00195 0.0
          0.0208 -0.00195 0.0
          0.0195 -0.00195 0.0
          0.0182 -0.00195 0.0
          0.0169 -0.00195 0.0
          0.0156 -0.00195 0.0
          0.0143 -0.00195 0.0
          0.013 -0.00195 0.0
          0.0117 -0.00195 0.0
          0.0104 -0.00195 0.0
          0.0091 -0.00195 0.0
          0.0078 -0.00195 0.0
          0.0065 -0.00195 0.0
          0.0052 -0.00195 0.0
          0.0039 -0.00195 0.0
          0.0026 -0.00195 0.0
          0.0013 -0.00195 0.0
          0 -0.00195 0.0
          0.039 -0.00325 0.0
          0.0377 -0.00325 0.0
          0.0364 -0.00325 0.0
          0.0351 -0.00325 0.0
          0.0338 -0.00325 0.0
          0.0325 -0.00325 0.0
          0.0312 -0.00325 0.0
          0.0299 -0.00325 0.0
          0.0286 -0.00325 0.0
          0.0273 -0.00325 0.0
          0.026 -0.00325 0.0
          0.0247 -0.00325 0.0
          0.0234 -0.00325 0.0
          0.0221 -0.00325 0.0
          0.0208 -0.00325 0.0
          0.0195 -0.00325 0.0
          0.0182 -0.00325 0.0
          0.0169 -0.00325 0.0
          0.0156 -0.00325 0.0
          0.0143 -0.00325 0.0
          0.013 -0.00325 0.0
          0.0117 -0.00325 0.0
          0.0104 -0.00325 0.0
          0.0091 -0.00325 0.0
          0.0078 -0.00325 0.0
          0.0065 -0.00325 0.0
          0.0052 -0.00325 0.0
          0.0039 -0.00325 0.0
          0.0026 -0.00325 0.0
          0.0013 -0.00325 0.0
          0 -0.00325 0.0
          0.039 -0.00455 0.0
          0.0377 -0.00455 0.0
          0.0364 -0.00455 0.0
          0.0351 -0.00455 0.0
          0.0338 -0.00455 0.0
          0.0325 -0.00455 0.0
          0.0312 -0.00455 0.0
          0.0299 -0.00455 0.0
          0.0286 -0.00455 0.0
          0.0273 -0.00455 0.0
          0.026 -0.00455 0.0
          0.0247 -0.00455 0.0
          0.0234 -0.00455 0.0
          0.0221 -0.00455 0.0
          0.0208 -0.00455 0.0
          0.0195 -0.00455 0.0
          0.0182 -0.00455 0.0
          0.0169 -0.00455 0.0
          0.0156 -0.00455 0.0
          0.0143 -0.00455 0.0
          0.013 -0.00455 0.0
          0.0117 -0.00455 0.0
          0.0104 -0.00455 0.0
          0.0091 -0.00455 0.0
          0.0078 -0.00455 0.0
          0.0065 -0.00455 0.0
          0.0052 -0.00455 0.0
          0.0039 -0.00455 0.0
          0.0026 -0.00455 0.0
          0.0013 -0.00455 0.0
          0 -0.00455 0.0
          0.039 -0.00585 0.0
          0.0377 -0.00585 0.0
          0.0364 -0.00585 0.0
          0.0351 -0.00585 0.0
          0.0338 -0.00585 0.0
          0.0325 -0.00585 0.0
          0.0312 -0.00585 0.0
          0.0299 -0.00585 0.0
          0.0286 -0.00585 0.0
          0.0273 -0.00585 0.0
          0.026 -0.00585 0.0
          0.0247 -0.00585 0.0
          0.0234 -0.00585 0.0
          0.0221 -0.00585 0.0
          0.0208 -0.00585 0.0
          0.0195 -0.00585 0.0
          0.0182 -0.00585 0.0
          0.0169 -0.00585 0.0
          0.0156 -0.00585 0.0
          0.0143 -0.00585 0.0
          0.013 -0.00585 0.0
          0.0117 -0.00585 0.0
          0.0104 -0.00585 0.0
          0.0091 -0.00585 0.0
          0.0078 -0.00585 0.0
          0.0065 -0.00585 0.0
          0.0052 -0.00585 0.0
          0.0039 -0.00585 0.0
          0.0026 -0.00585 0.0
          0.0013 -0.00585 0.0
          0 -0.00585 0.0
          0.039 -0.00715 0.0
          0.0377 -0.00715 0.0
          0.0364 -0.00715 0.0
          0.0351 -0.00715 0.0
          0.0338 -0.00715 0.0
          0.0325 -0.00715 0.0
          0.0312 -0.00715 0.0
          0.0299 -0.00715 0.0
          0.0286 -0.00715 0.0
          0.0273 -0.00715 0.0
          0.026 -0.00715 0.0
          0.0247 -0.00715 0.0
          0.0234 -0.00715 0.0
          0.0221 -0.00715 0.0
          0.0208 -0.00715 0.0
          0.0195 -0.00715 0.0
          0.0182 -0.00715 0.0
          0.0169 -0.00715 0.0
          0.0156 -0.00715 0.0
          0.0143 -0.00715 0.0
          0.013 -0.00715 0.0
          0.0117 -0.00715 0.0
          0.0104 -0.00715 0.0
          0.0091 -0.00715 0.0
          0.0078 -0.00715 0.0
          0.0065 -0.00715 0.0
          0.0052 -0.00715 0.0
          0.0039 -0.00715 0.0
          0.0026 -0.00715 0.0
          0.0013 -0.00715 0.0
          0 -0.00715 0.0
          0.039 -0.00845 0.0
          0.0377 -0.00845 0.0
          0.0364 -0.00845 0.0
          0.0351 -0.00845 0.0
          0.0338 -0.00845 0.0
          0.0325 -0.00845 0.0
          0.0312 -0.00845 0.0
          0.0299 -0.00845 0.0
          0.0286 -0.00845 0.0
          0.0273 -0.00845 0.0
          0.026 -0.00845 0.0
          0.0247 -0.00845 0.0
          0.0234 -0.00845 0.0
          0.0221 -0.00845 0.0
          0.0208 -0.00845 0.0
          0.0195 -0.00845 0.0
          0.0182 -0.00845 0.0
          0.0169 -0.00845 0.0
          0.0156 -0.00845 0.0
          0.0143 -0.00845 0.0
          0.013 -0.00845 0.0
          0.0117 -0.00845 0.0
          0.0104 -0.00845 0.0
          0.0091 -0.00845 0.0
          0.0078 -0.00845 0.0
          0.0065 -0.00845 0.0
          0.0052 -0.00845 0.0
          0.0039 -0.00845 0.0
          0.0026 -0.00845 0.0
          0.0013 -0.00845 0.0
          0 -0.00845 0.0
          0.039 -0.00975 0.0
          0.0377 -0.00975 0.0
          0.0364 -0.00975 0.0
          0.0351 -0.00975 0.0
          0.0338 -0.00975 0.0
          0.0325 -0.00975 0.0
          0.0312 -0.00975 0.0
          0.0299 -0.00975 0.0
          0.0286 -0.00975 0.0
          0.0273 -0.00975 0.0
          0.026 -0.00975 0.0
          0.0247 -0.00975 0.0
          0.0234 -0.00975 0.0
          0.0221 -0.00975 0.0
          0.0208 -0.00975 0.0
          0.0195 -0.00975 0.0
          0.0182 -0.00975 0.0
          0.0169 -0.00975 0.0
          0.0156 -0.00975 0.0
          0.0143 -0.00975 0.0
          0.013 -0.00975 0.0
          0.0117 -0.00975 0.0
          0.0104 -0.00975 0.0
          0.0091 -0.00975 0.0
          0.0078 -0.00975 0.0
          0.0065 -0.00975 0.0
          0.0052 -0.00975 0.0
          0.0039 -0.00975 0.0
          0.0026 -0.00975 0.0
          0.0013 -0.00975 0.0
          0 -0.00975 0.0
          0.039 -0.01105 0.0
          0.0377 -0.01105 0.0
          0.0364 -0.01105 0.0
          0.0351 -0.01105 0.0
          0.0338 -0.01105 0.0
          0.0325 -0.01105 0.0
          0.0312 -0.01105 0.0
          0.0299 -0.01105 0.0
          0.0286 -0.01105 0.0
          0.0273 -0.01105 0.0
          0.026 -0.01105 0.0
          0.0247 -0.01105 0.0
          0.0234 -0.01105 0.0
          0.0221 -0.01105 0.0
          0.0208 -0.01105 0.0
          0.0195 -0.01105 0.0
          0.0182 -0.01105 0.0
          0.0169 -0.01105 0.0
          0.0156 -0.01105 0.0
          0.0143 -0.01105 0.0
          0.013 -0.01105 0.0
          0.0117 -0.01105 0.0
          0.0104 -0.01105 0.0
          0.0091 -0.01105 0.0
          0.0078 -0.01105 0.0
          0.0065 -0.01105 0.0
          0.0052 -0.01105 0.0
          0.0039 -0.01105 0.0
          0.0026 -0.01105 0.0
          0.0013 -0.01105 0.0
          0 -0.01105 0.0
          0.039 -0.01235 0.0
          0.0377 -0.01235 0.0
          0.0364 -0.01235 0.0
          0.0351 -0.01235 0.0
          0.0338 -0.01235 0.0
          0.0325 -0.01235 0.0
          0.0312 -0.01235 0.0
          0.0299 -0.01235 0.0
          0.0286 -0.01235 0.0
          0.0273 -0.01235 0.0
          0.026 -0.01235 0.0
          0.0247 -0.01235 0.0
          0.0234 -0.01235 0.0
          0.0221 -0.01235 0.0
          0.0208 -0.01235 0.0
          0.0195 -0.01235 0.0
          0.0182 -0.01235 0.0
          0.0169 -0.01235 0.0
          0.0156 -0.01235 0.0
          0.0143 -0.01235 0.0
          0.013 -0.01235 0.0
          0.0117 -0.01235 0.0
          0.0104 -0.01235 0.0
          0.0091 -0.01235 0.0
          0.0078 -0.01235 0.0
          0.0065 -0.01235 0.0
          0.0052 -0.01235 0.0
          0.0039 -0.01235 0.0
          0.0026 -0.01235 0.0
          0.0013 -0.01235 0.0
          0 -0.01235 0.0
          0.039 -0.01365 0.0
          0.0377 -0.01365 0.0
          0.0364 -0.01365 0.0
          0.0351 -0.01365 0.0
          0.0338 -0.01365 0.0
          0.0325 -0.01365 0.0
          0.0312 -0.01365 0.0
          0.0299 -0.01365 0.0
          0.0286 -0.01365 0.0
          0.0273 -0.01365 0.0
          0.026 -0.01365 0.0
          0.0247 -0.01365 0.0
          0.0234 -0.01365 0.0
          0.0221 -0.01365 0.0
          0.0208 -0.01365 0.0
          0.0195 -0.01365 0.0
          0.0182 -0.01365 0.0
          0.0169 -0.01365 0.0
          0.0156 -0.01365 0.0
          0.0143 -0.01365 0.0
          0.013 -0.01365 0.0
          0.0117 -0.01365 0.0
          0.0104 -0.01365 0.0
          0.0091 -0.01365 0.0
          0.0078 -0.01365 0.0
          0.0065 -0.01365 0.0
          0.0052 -0.01365 0.0
          0.0039 -0.01365 0.0
          0.0026 -0.01365 0.0
          0.0013 -0.01365 0.0
          0 -0.01365 0.0
          0.039 -0.01495 0.0
          0.0377 -0.01495 0.0
          0.0364 -0.01495 0.0
          0.0351 -0.01495 0.0
          0.0338 -0.01495 0.0
          0.0325 -0.01495 0.0
          0.0312 -0.01495 0.0
          0.0299 -0.01495 0.0
          0.0286 -0.01495 0.0
          0.0273 -0.01495 0.0
          0.026 -0.01495 0.0
          0.0247 -0.01495 0.0
          0.0234 -0.01495 0.0