<?xml version="1.0"?>
<VTKFile type="UnstructuredGrid" version="0.1" byte_order="LittleEndian">
  <UnstructuredGrid>
    <Piece NumberOfPoints="961" NumberOfCells="900">
      <PointData Scalars="Temperature">
        <DataArray type="Float32" Name="Temperature" format="ascii">
          21.0003
          21.0115
          21.0234
          21.0355
          21.0459
          21.0533
          21.0574
          21.0605
          21.0649
          21.0717
          21.0792
          21.0848
          21.0866
          21.0858
          21.0848
          21.0859
          21.0887
          21.0908
          21.0895
          21.0841
          21.0768
          21.0702
          21.0662
          21.0633
          21.0593
          21.0519
          21.0415
          21.0297
          21.0186
          21.0089
          21.0002
          21.0111
          21.4643
          21.9606
          22.4701
          22.9235
          23.2225
          23.3774
          23.4737
          23.6496
          23.9411
          24.2821
          24.5248
          24.5957
          24.5325
          24.4714
          24.517
          24.6581
          24.7704
          24.721
          24.4839
          24.1482
          23.8684
          23.7089
          23.6253
          23.474
          23.1714
          22.7157
          22.2167
          21.7529
          21.362
          21.0087
          21.0212
          21.8853
          22.846
          24.0394
          25.026
          25.6753
          25.8285
          25.8671
          26.1061
          26.8393
          27.6768
          28.298
          28.3682
          28.0614
          27.7771
          27.8926
          28.3453
          28.7521
          28.7032
          28.0779
          27.2408
          26.5366
          26.3408
          26.3371
          26.1875
          25.5202
          24.519
          23.3336
          22.4354
          21.6896
          21.0165
          21.0296
          22.2383
          23.5964
          25.2887
          28.4838
          28.4842
          28.4843
          28.4843
          27.9714
          29.059
          32.496
          32.4964
          32.4964
          32.4962
          30.2932
          30.4649
          33.1311
          33.1314
          33.1314
          33.1309
          29.6078
          28.563
          29.278
          29.2781
          29.278
          29.2776
          25.9522
          24.2809
          23.0137
          21.9698
          21.0233
          21.0359
          22.4989
          24.1114
          26.108
          28.5036
          28.5038
          28.5039
          28.5039
          29.0894
          30.4232
          32.5209
          32.521
          32.5211
          32.521
          31.8145
          32.0255
          33.1569
          33.157
          33.1569
          33.1568
          31.0598
          29.7787
          29.2991
          29.2991
          29.299
          29.2988
          26.8965
          24.9466
          23.4541
          22.1893
          21.0286
          21.0402
          22.6668
          24.4146
          26.3718
          28.5619
          28.562
          28.5621
          28.5622
          29.5297
          30.8684
          32.5943
          32.5943
          32.5944
          32.5944
          32.3582
          32.5701
          33.2331
          33.2331
          33.2331
          33.233
          31.5368
          30.2512
          29.3617
          29.3617
          29.3616
          29.3614
          27.2244
          25.3577
          23.7565
          22.3481
          21.0325
          21.0428
          22.7694
          24.5779
          26.53
          28.6589
          28.6591
          28.6592
          28.6592
          29.7513
          31.0983
          32.7162
          32.7163
          32.7164
          32.7164
          32.627
          32.8404
          33.3597
          33.3597
          33.3596
          33.3596
          31.7811
          30.488
          29.4659
          29.4659
          29.4658
          29.4656
          27.4276
          25.5972
          23.9567
          22.4584
          21.0352
          21.0446
          22.8385
          24.695
          26.6668
          28.7948
          28.7949
          28.795
          28.7951
          29.9343
          31.293
          32.8869
          32.887
          32.887
          32.887
          32.8446
          33.0602
          33.5367
          33.5367
          33.5367
          33.5366
          31.9862
          30.6826
          29.6118
          29.6117
          29.6116
          29.6115
          27.6001
          25.7718
          24.0983
          22.5377
          21.0372
          21.046
          22.8975
          24.8032
          26.8124
          28.9696
          28.9698
          28.9699
          28.97
          30.1345
          31.5081
          33.1062
          33.1063
          33.1063
          33.1064
          33.0804
          33.2987
          33.7643
          33.7643
          33.7642
          33.7641
          32.212
          30.895
          29.7995
          29.7994
          29.7993
          29.7992
          27.7772
          25.9275
          24.2159
          22.6019
          21.0388
          21.0475
          22.9578
          24.9188
          26.9787
          29.1837
          29.1838
          29.1839
          29.184
          30.3692
          31.7609
          33.3743
          33.3744
          33.3744
          33.3744
          33.3558
          33.5775
          34.0423
          34.0423
          34.0423
          34.0422
          32.477
          31.1438
          30.0291
          30.0291
          30.029
          30.0288
          27.9737
          26.0864
          24.3292
          22.6616
          21.0403
          21.0492
          23.0243
          25.0488
          27.1707
          29.4371
          29.4372
          29.4374
          29.4374
          30.6439
          32.0569
          33.6911
          33.6912
          33.6913
          33.6913
          33.6776
          33.9033
          34.3709
          34.371
          34.3709
          34.3708
          32.7872
          31.435
          30.301
          30.3009
          30.3008
          30.3007
          28.197
          26.2593
          24.4483
          22.7231
          21.0418
          21.051
          23.0991
          25.1964
          27.3908
          29.7302
          29.7304
          29.7305
          29.7306
          30.9606
          32.3979
          34.0569
          34.057
          34.057
          34.057
          34.048
          34.2781
          34.7502
          34.7502
          34.7502
          34.7501
          33.1444
          31.7704
          30.6153
          30.6153
          30.6152
          30.615
          28.4506
          26.4521
          24.5787
          22.7897
          21.0435
          21.053
          23.1833
          25.363
          27.6402
          30.0633
          30.0635
          30.0636
          30.0637
          31.3199
          32.7845
          34.4715
          34.4716
          34.4717
          34.4717
          34.4675
          34.7027
          35.1801
          35.1801
          35.18
          35.1799
          33.5493
          32.1509
          30.9724
          30.9723
          30.9722
          30.9721
          28.7367
          26.6676
          24.7235
          22.8632
          21.0453
          21.0553
          23.2775
          25.5493
          27.9194
          30.4368
          30.4369
          30.437
          30.4371
          31.7222
          33.2171
          34.9352
          34.9353
          34.9354
          34.9354
          34.9365
          35.1774
          35.6606
          35.6606
          35.6606
          35.6605
          34.0022
          32.5768
          31.3725
          31.3724
          31.3723
          31.3722
          29.0563
          26.9076
          24.8842
          22.9446
          21.0472
          21.0579
          23.3818
          25.7558
          28.229
          30.8509
          30.851
          30.8512
          30.8513
          32.168
          33.6959
          35.448
          35.4481
          35.4482
          35.4482
          35.4551
          35.7022
          36.192
          36.192
          36.1919
          36.1918
          34.5033
          33.0484
          31.816
          31.8159
          31.8158
          31.8156
          29.4103
          27.1733
          25.062
          23.0346
          21.0494
          21.0607
          23.4966
          25.983
          28.5695
          31.3061
          31.3063
          31.3064
          31.3065
          32.6574
          34.2211
          36.01
          36.0101
          36.0102
          36.0102
          36.0235
          36.2773
          36.7741
          36.7741
          36.774
          36.7739
          35.0528
          33.5661
          32.3032
          32.3031
          32.303
          32.3028
          29.7997
          27.4658
          25.258
          23.1339
          21.0519
          21.0637
          23.6221
          26.2313
          28.9414
          31.8028
          31.803
          31.8031
          31.8032
          33.1909
          34.7929
          36.6213
          36.6214
          36.6214
          36.6215
          36.6417
          36.9027
          37.407
          37.407
          37.407
          37.4069
          35.6509
          34.1301
          32.8345
          32.8344
          32.8343
          32.8342
          30.2254
          27.7866
          25.4734
          23.2432
          21.0545
          21.0671
          23.7589
          26.5016
          29.3453
          32.3415
          32.3417
          32.3418
          32.342
          33.7688
          35.4117
          37.2819
          37.282
          37.282
          37.2821
          37.3098
          37.5786
          38.0908
          38.0908
          38.0907
          38.0906
          36.2977
          34.7408
          33.4104
          33.4103
          33.4101
          33.41
          30.689
          28.1378
          25.7105
          23.3639
          21.0575
          21.0706
          23.908
          26.7951
          29.7825
          32.9226
          32.9228
          32.923
          32.9231
          34.3914
          36.0775
          37.9919
          37.992
          37.9921
          37.9921
          38.0279
          38.3049
          38.8255
          38.8255
          38.8254
          38.8253
          36.9934
          35.3983
          34.0312
          34.031
          34.0309
          34.0307
          31.1932
          28.5234
          25.973
          23.4985
          21.0607
          21.075
          24.0714
          27.1151
          30.2553
          33.5466
          33.5468
          33.5471
          33.5472
          35.0591
          36.7905
          38.7513
          38.7515
          38.7516
          38.7517
          38.7964
          39.0821
          39.6111
          39.611
          39.6109
          39.6108
          37.7382
          36.1031
          34.6973
          34.6972
          34.697
          34.6968
          31.7424
          28.9507
          26.2685
          23.6514
          21.0648
          21.0781
          24.2543
          27.468
          30.7684
          34.2139
          34.2142
          34.2146
          34.2148
          35.7724
          37.5511
          39.5602
          39.5605
          39.5608
          39.561
          39.6158
          39.9107
          40.4476
          40.4476
          40.4473
          40.4471
          38.5324
          36.8557
          35.4094
          35.4092
          35.4088
          35.4085
          32.3455
          29.4337
          26.6107
          23.8321
          21.0679
          21.0887
          24.4651
          27.8692
          31.3324
          34.9249
          34.9254
          34.9261
          34.9265
          36.5318
          38.3593
          40.4183
          40.4189
          40.4198
          40.4202
          40.4879
          40.7923
          41.3354
          41.3351
          41.3345
          41.3341
          39.3765
          37.6569
          36.1679
          36.1675
          36.1667
          36.1662
          33.0183
          29.9984
          27.0274
          24.0553
          21.0792
          21.0741
          24.7382
          28.3504
          31.9716
          35.6793
          35.6805
          35.6825
          35.6836
          37.3385
          39.2155
          41.3247
          41.3262
          41.3291
          41.3305
          41.4175
          41.7315
          42.2748
          42.2739
          42.272
          42.271
          40.2716
          38.5087
          36.9741
          36.973
          36.9708
          36.9695
          33.7899
          30.6955
          27.5688
          24.3658
          21.0641
          21.1693
          25.0936
          29.0014
          32.7363
          36.4758
          36.4791
          36.4852
          36.4884
          38.1958
          40.1205
          42.2767
          42.2812
          42.29
          42.2945
          42.418
          42.7415
          43.268
          43.265
          43.259
          43.2559
          41.2211
          39.4165
          37.8306
          37.8271
          37.8204
          37.8168
          34.712
          31.6154
          28.3523
          24.7949
          21.1669
          20.8437
          25.8272
          29.9617
          33.7533
          37.3088
          37.3184
          37.338
          37.3475
          39.1149
          41.0773
          43.2652
          43.2791
          43.3075
          43.3212
          43.5262
          43.8572
          44.3206
          44.3113
          44.2921
          44.2827
          42.2349
          40.3972
          38.7443
          38.7339
          38.7123
          38.7018
          35.8586
          32.9389
          29.5494
          25.6672
          20.8217
          22.2524
          26.7122
          31.8234
          35.1979
          38.1578
          38.1905
          38.2498
          38.2826
          40.1321
          42.1009
          44.2596
          44.3072
          44.3939
          44.4414
          44.8393
          45.172
          45.4536
          45.4214
          45.3628
          45.3305
          43.3452
          41.5011
          39.7391
          39.7031
          39.6377
          39.6016
          37.3032
          34.8958
          31.8068
          26.7439
          22.3274
          16.8311
          31.3688
          35.0809
          37.2025
          38.9734
          39.0509
          39.2661
          39.3437
          41.4015
          43.2202
          45.1866
          45.3009
          45.614
          45.7283
          46.6187
          46.9244
          46.7162
          46.6391
          46.427
          46.3498
          44.6244
          42.9131
          40.8701
          40.7845
          40.5474
          40.4618
          39.0747
          37.6461
          35.6362
          31.8784
          16.5492
          39.4778
          39.5607
          39.659
          39.7686
          39.7044
          39.7917
          40.2142
          41.1462
          43.2084
          44.6155
          45.7083
          46.2288
          46.8572
          47.803
          49.3442
          49.5706
          48.5585
          47.8736
          47.4508
          47.1387
          46.3268
          44.9631
          42.7986
          41.7966
          41.3295
          41.2101
          41.2225
          41.0602
          40.913
          40.7984
          40.7081
          39.5045
          39.5699
          39.6732
          39.8003
          39.9907
          40.3283
          40.9471
          41.9811
          43.3
          44.7442
          46.0329
          47.1526
          48.1258
          49.0527
          49.7438
          49.969
          49.6938
          49.1449
          48.5091
          47.6749
          46.545
          45.1115
          43.7081
          42.585
          41.8967
          41.5005
          41.2551
          41.0734
          40.9189
          40.8053
          40.7349
          39.5374
          39.5893
          39.6993
          39.8806
          40.1683
          40.6259
          41.3267
          42.3051
          43.5451
          44.9996
          46.6899
          48.2712
          49.4549
          50.3345
          50.9072
          51.1186
          50.9651
          50.5008
          49.7576
          48.6816
          47.14
          45.4732
          44.0857
          42.9991
          42.2137
          41.6866
          41.3373
          41.098
          40.9302
          40.8201
          40.7666
          39.5608
          39.598
          39.7133
          39.9122
          40.23
          40.7208
          41.4379
          42.4105
          43.6367
          45.1282
          47.066
          48.9171
          50.1702
          51.0548
          51.6075
          51.8177
          51.6857
          51.2324
          50.4598
          49.2992
          47.5086
          45.6214
          44.2139
          43.1223
          42.3156
          41.7516
          41.3698
          41.1111
          40.9358
          40.8265
          40.7899
        </DataArray>
      </PointData>
      <CellData>
      </CellData>
      <Points>
        <DataArray type="Float32" NumberOfComponents="3" format="ascii">
          0.1 0.005 0.0
          0.0966667 0.005 0.0
          0.0933333 0.005 0.0
          0.09 0.005 0.0
          0.0866667 0.005 0.0
          0.0833333 0.005 0.0
          0.08 0.005 0.0
          0.0766667 0.005 0.0
          0.0733333 0.005 0.0
          0.07 0.005 0.0
          0.0666667 0.005 0.0
          0.0633333 0.005 0.0
          0.06 0.005 0.0
          0.0566667 0.005 0.0
          0.0533333 0.005 0.0
          0.05 0.005 0.0
          0.0466667 0.005 0.0
          0.0433333 0.005 0.0
          0.04 0.005 0.0
          0.0366667 0.005 0.0
          0.0333333 0.005 0.0
          0.03 0.005 0.0
          0.0266667 0.005 0.0
          0.0233333 0.005 0.0
          0.02 0.005 0.0
          0.0166667 0.005 0.0
          0.0133333 0.005 0.0
          0.01 0.005 0.0
          0.00666667 0.005 0.0
          0.00333333 0.005 0.0
          0 0.005 0.0
          0.1 0.00166667 0.0
          0.0966667 0.00166667 0.0
          0.0933333 0.00166667 0.0
          0.09 0.00166667 0.0
          0.0866667 0.00166667 0.0
          0.0833333 0.00166667 0.0
          0.08 0.00166667 0.0
          0.0766667 0.00166667 0.0
          0.0733333 0.00166667 0.0
          0.07 0.00166667 0.0
          0.0666667 0.00166667 0.0
          0.0633333 0.00166667 0.0
          0.06 0.00166667 0.0
          0.0566667 0.00166667 0.0
          0.0533333 0.00166667 0.0
          0.05 0.00166667 0.0
          0.0466667 0.00166667 0.0
          0.0433333 0.00166667 0.0
          0.04 0.00166667 0.0
          0.0366667 0.00166667 0.0
          0.0333333 0.00166667 0.0
          0.03 0.00166667 0.0
          0.0266667 0.00166667 0.0
          0.0233333 0.00166667 0.0
          0.02 0.00166667 0.0
          0.0166667 0.00166667 0.0
          0.0133333 0.00166667 0.0
          0.01 0.00166667 0.0
          0.00666667 0.00166667 0.0
          0.00333333 0.00166667 0.0
          0 0.00166667 0.0
          0.1 -0.00166667 0.0
          0.0966667 -0.00166667 0.0
          0.0933333 -0.00166667 0.0
          0.09 -0.00166667 0.0
          0.0866667 -0.00166667 0.0
          0.0833333 -0.00166667 0.0
          0.08 -0.00166667 0.0
          0.0766667 -0.00166667 0.0
          0.0733333 -0.00166667 0.0
          0.07 -0.00166667 0.0
          0.0666667 -0.00166667 0.0
          0.0633333 -0.00166667 0.0
          0.06 -0.00166667 0.0
          0.0566667 -0.00166667 0.0
          0.0533333 -0.00166667 0.0
          0.05 -0.00166667 0.0
          0.0466667 -0.00166667 0.0
          0.0433333 -0.00166667 0.0
          0.04 -0.00166667 0.0
          0.0366667 -0.00166667 0.0
          0.0333333 -0.00166667 0.0
          0.03 -0.00166667 0.0
          0.0266667 -0.00166667 0.0
          0.0233333 -0.00166667 0.0
          0.02 -0.00166667 0.0
          0.0166667 -0.00166667 0.0
          0.0133333 -0.00166667 0.0
          0.01 -0.00166667 0.0
          0.00666667 -0.00166667 0.0
          0.00333333 -0.00166667 0.0
          0 -0.00166667 0.0
          0.1 -0.005 0.0
          0.0966667 -0.005 0.0
          0.0933333 -0.005 0.0
          0.09 -0.005 0.0
          0.0866667 -0.005 0.0
          0.0833333 -0.005 0.0
          0.08 -0.005 0.0
          0.0766667 -0.005 0.0
          0.0733333 -0.005 0.0
          0.07 -0.005 0.0
          0.0666667 -0.005 0.0
          0.0633333 -0.005 0.0
          0.06 -0.005 0.0
          0.0566667 -0.005 0.0
          0.0533333 -0.005 0.0
          0.05 -0.005 0.0
          0.0466667 -0.005 0.0
          0.0433333 -0.005 0.0
          0.04 -0.005 0.0
          0.0366667 -0.005 0.0
          0.0333333 -0.005 0.0
          0.03 -0.005 0.0
          0.0266667 -0.005 0.0
          0.0233333 -0.005 0.0
          0.02 -0.005 0.0
          0.0166667 -0.005 0.0
          0.0133333 -0.005 0.0
          0.01 -0.005 0.0
          0.00666667 -0.005 0.0
          0.00333333 -0.005 0.0
          0 -0.005 0.0
          0.1 -0.00833333 0.0
          0.0966667 -0.00833333 0.0
          0.0933333 -0.00833333 0.0
          0.09 -0.00833333 0.0
          0.0866667 -0.00833333 0.0
          0.0833333 -0.00833333 0.0
          0.08 -0.00833333 0.0
          0.0766667 -0.00833333 0.0
          0.0733333 -0.00833333 0.0
          0.07 -0.00833333 0.0
          0.0666667 -0.00833333 0.0
          0.0633333 -0.00833333 0.0
          0.06 -0.00833333 0.0
          0.0566667 -0.00833333 0.0
          0.0533333 -0.00833333 0.0
          0.05 -0.00833333 0.0
          0.0466667 -0.00833333 0.0
          0.0433333 -0.00833333 0.0
          0.04 -0.00833333 0.0
          0.0366667 -0.00833333 0.0
          0.0333333 -0.00833333 0.0
          0.03 -0.00833333 0.0
          0.0266667 -0.00833333 0.0
          0.0233333 -0.00833333 0.0
          0.02 -0.00833333 0.0
          0.0166667 -0.00833333 0.0
          0.0133333 -0.00833333 0.0
          0.01 -0.00833333 0.0
          0.00666667 -0.00833333 0.0
          0.00333333 -0.00833333 0.0
          0 -0.00833333 0.0
          0.1 -0.0116667 0.0
          0.0966667 -0.0116667 0.0
          0.0933333 -0.0116667 0.0
          0.09 -0.0116667 0.0
          0.0866667 -0.0116667 0.0
          0.0833333 -0.0116667 0.0
          0.08 -0.0116667 0.0
          0.0766667 -0.0116667 0.0
          0.0733333 -0.0116667 0.0
          0.07 -0.0116667 0.0
          0.0666667 -0.0116667 0.0
          0.0633333 -0.0116667 0.0
          0.06 -0.0116667 0.0
          0.0566667 -0.0116667 0.0
          0.0533333 -0.0116667 0.0
          0.05 -0.0116667 0.0
          0.0466667 -0.0116667 0.0
          0.0433333 -0.0116667 0.0
          0.04 -0.0116667 0.0
          0.0366667 -0.0116667 0.0
          0.0333333 -0.0116667 0.0
          0.03 -0.0116667 0.0
          0.0266667 -0.0116667 0.0
          0.0233333 -0.0116667 0.0
          0.02 -0.0116667 0.0
          0.0166667 -0.0116667 0.0
          0.0133333 -0.0116667 0.0
          0.01 -0.0116667 0.0
          0.00666667 -0.0116667 0.0
          0.00333333 -0.0116667 0.0
          0 -0.0116667 0.0
          0.1 -0.015 0.0
          0.0966667 -0.015 0.0
          0.0933333 -0.015 0.0
          0.09 -0.015 0.0
          0.0866667 -0.015 0.0
          0.0833333 -0.015 0.0
          0.08 -0.015 0.0
          0.0766667 -0.015 0.0
          0.0733333 -0.015 0.0
          0.07 -0.015 0.0
          0.0666667 -0.015 0.0
          0.0633333 -0.015 0.0
          0.06 -0.015 0.0
          0.0566667 -0.015 0.0
          0.0533333 -0.015 0.0
          0.05 -0.015 0.0
          0.0466667 -0.015 0.0
          0.0433333 -0.015 0.0
          0.04 -0.015 0.0
          0.0366667 -0.015 0.0
          0.0333333 -0.015 0.0
          0.03 -0.015 0.0
          0.0266667 -0.015 0.0
          0.0233333 -0.015 0.0
          0.02 -0.015 0.0
          0.0166667 -0.015 0.0
          0.0133333 -0.015 0.0
          0.01 -0.015 0.0
          0.00666667 -0.015 0.0
          0.00333333 -0.015 0.0
          0 -0.015 0.0
          0.1 -0.0183333 0.0
          0.0966667 -0.0183333 0.0
          0.0933333 -0.0183333 0.0
          0.09 -0.0183333 0.0
          0.0866667 -0.0183333 0.0
          0.0833333 -0.0183333 0.0
          0.08 -0.0183333 0.0
          0.0766667 -0.0183333 0.0
          0.0733333 -0.0183333 0.0
          0.07 -0.0183333 0.0
          0.0666667 -0.0183333 0.0
          0.0633333 -0.0183333 0.0
          0.06 -0.0183333 0.0
          0.0566667 -0.0183333 0.0
          0.0533333 -0.0183333 0.0
          0.05 -0.0183333 0.0
          0.0466667 -0.0183333 0.0
          0.0433333 -0.0183333 0.0
          0.04 -0.0183333 0.0
          0.0366667 -0.0183333 0.0
          0.0333333 -0.0183333 0.0
          0.03 -0.0183333 0.0
          0.0266667 -0.0183333 0.0
          0.0233333 -0.0183333 0.0
          0.02 -0.0183333 0.0
          0.0166667 -0.0183333 0.0
          0.0133333 -0.0183333 0.0
          0.01 -0.0183333 0.0
          0.00666667 -0.0183333 0.0
          0.00333333 -0.0183333 0.0
          0 -0.0183333 0.0
          0.1 -0.0216667 0.0
          0.0966667 -0.0216667 0.0
          0.0933333 -0.0216667 0.0
          0.09 -0.0216667 0.0
          0.0866667 -0.0216667 0.0
          0.0833333 -0.0216667 0.0
          0.08 -0.0216667 0.0
          0.0766667 -0.0216667 0.0
          0.0733333 -0.0216667 0.0
          0.07 -0.0216667 0.0
          0.0666667 -0.0216667 0.0
          0.0633333 -0.0216667 0.0
          0.06 -0.0216667 0.0
          0.0566667 -0.0216667 0.0
          0.0533333 -0.0216667 0.0
          0.05 -0.0216667 0.0
          0.0466667 -0.0216667 0.0
          0.0433333 -0.0216667 0.0
          0.04 -0.0216667 0.0
          0.0366667 -0.0216667 0.0
          0.0333333 -0.0216667 0.0
          0.03 -0.0216667 0.0
          0.0266667 -0.0216667 0.0
          0.0233333 -0.0216667 0.0
          0.02 -0.0216667 0.0
          0.0166667 -0.0216667 0.0
          0.0133333 -0.0216667 0.0
          0.01 -0.0216667 0.0
          0.00666667 -0.0216667 0.0
          0.00333333 -0.0216667 0.0
          0 -0.0216667 0.0
          0.1 -0.025 0.0
          0.0966667 -0.025 0.0
          0.0933333 -0.025 0.0
          0.09 -0.025 0.0
          0.0866667 -0.025 0.0
          0.0833333 -0.025 0.0
          0.08 -0.025 0.0
          0.0766667 -0.025 0.0
          0.0733333 -0.025 0.0
          0.07 -0.025 0.0
          0.0666667 -0.025 0.0
          0.0633333 -0.025 0.0
          0.06 -0.025 0.0
          0.0566667 -0.025 0.0
          0.0533333 -0.025 0.0
          0.05 -0.025 0.0
          0.0466667 -0.025 0.0
          0.0433333 -0.025 0.0
          0.04 -0.025 0.0
          0.0366667 -0.025 0.0
          0.0333333 -0.025 0.0
          0.03 -0.025 0.0
          0.0266667 -0.025 0.0
          0.0233333 -0.025 0.0
          0.02 -0.025 0.0
          0.0166667 -0.025 0.0
          0.0133333 -0.025 0.0
          0.01 -0.025 0.0
          0.00666667 -0.025 0.0
          0.00333333 -0.025 0.0
          0 -0.025 0.0
          0.1 -0.0283333 0.0
          0.0966667 -0.0283333 0.0
          0.0933333 -0.0283333 0.0
          0.09 -0.0283333 0.0
          0.0866667 -0.0283333 0.0
          0.0833333 -0.0283333 0.0
          0.08 -0.0283333 0.0
          0.0766667 -0.0283333 0.0
          0.0733333 -0.0283333 0.0
          0.07 -0.0283333 0.0
          0.0666667 -0.0283333 0.0
          0.0633333 -0.0283333 0.0
          0.06 -0.0283333 0.0
          0.0566667 -0.0283333 0.0
          0.0533333 -0.0283333 0.0
          0.05 -0.0283333 0.0
          0.0466667 -0.0283333 0.0
          0.0433333 -0.0283333 0.0
          0.04 -0.0283333 0.0
          0.0366667 -0.0283333 0.0
          0.0333333 -0.0283333 0.0
          0.03 -0.0283333 0.0
          0.0266667 -0.0283333 0.0
          0.0233333 -0.0283333 0.0
          0.02 -0.0283333 0.0
          0.0166667 -0.0283333 0.0
          0.0133333 -0.0283333 0.0
          0.01 -0.0283333 0.0
          0.00666667 -0.0283333 0.0
          0.00333333 -0.0283333 0.0
          0 -0.0283333 0.0
          0.1 -0.0316667 0.0
          0.0966667 -0.0316667 0.0
          0.0933333 -0.0316667 0.0
          0.09 -0.0316667 0.0
          0.0866667 -0.0316667 0.0
          0.0833333 -0.0316667 0.0
          0.08 -0.0316667 0.0
          0.0766667 -0.0316667 0.0
          0.0733333 -0.0316667 0.0
          0.07 -0.0316667 0.0
          0.0666667 -0.0316667 0.0
          0.0633333 -0.0316667 0.0
          0.06 -0.0316667 0.0
          0.0566667 -0.0316667 0.0
          0.0533333 -0.0316667 0.0
          0.05 -0.0316667 0.0
          0.0466667 -0.0316667 0.0
          0.0433333 -0.0316667 0.0
          0.04 -0.0316667 0.0
          0.0366667 -0.0316667 0.0
          0.0333333 -0.0316667 0.0
          0.03 -0.0316667 0.0
          0.0266667 -0.0316667 0.0
          0.0233333 -0.0316667 0.0
          0.02 -0.0316667 0.0
          0.0166667 -0.0316667 0.0
          0.0133333 -0.0316667 0.0
          0.01 -0.0316667 0.0
          0.00666667 -0.0316667 0.0
          0.00333333 -0.0316667 0.0
          0 -0.0316667 0.0
          0.1 -0.035 0.0
          0.0966667 -0.035 0.0
          0.0933333 -0.035 0.0
          0.09 -0.035 0.0
          0.0866667 -0.035 0.0
          0.0833333 -0.035 0.0
          0.08 -0.035 0.0
          0.0766667 -0.035 0.0
          0.0733333 -0.035 0.0
          0.07 -0.035 0.0
          0.0666667 -0.035 0.0
          0.0633333 -0.035 0.0
          0.06 -0.035 0.0
          0.0566667 -0.035 0.0
          0.0533333 -0.035 0.0
          0.05 -0.035 0.0
          0.0466667 -0.035 0.0