<?xml version="1.0"?>
<VTKFile type="UnstructuredGrid" version="0.1" byte_order="LittleEndian">
  <UnstructuredGrid>
    <Piece NumberOfPoints="961" NumberOfCells="900">
      <PointData Scalars="Temperature">
        <DataArray type="Float32" Name="Temperature" format="ascii">
          34.1779
          34.1779
          34.1779
          34.1779
          34.1779
          34.1779
          34.1779
          34.1779
          34.1779
          34.1779
          34.1779
          34.1779
          34.1779
          34.1779
          34.1779
          34.1779
          34.1779
          34.1779
          34.1779
          34.1779
          34.1779
          34.1779
          34.1779
          34.1779
          34.1779
          34.1779
          34.1779
          34.1779
          34.1779
          34.1779
          34.1779
          34.1779
          34.1779
          34.1779
          34.1779
          34.1779
          34.1779
          34.1779
          34.1779
          34.1779
          34.1779
          34.1779
          34.1779
          34.1779
          34.1779
          34.1779
          34.1779
          34.1779
          34.1779
          34.1779
          34.1779
          34.1779
          34.1779
          34.1779
          34.1779
          34.1779
          34.1779
          34.1779
          34.1779
          34.1779
          34.1779
          34.1779
          34.1779
          34.1779
          34.1779
          34.1779
          34.1779
          34.1779
          34.1779
          34.1779
          34.1779
          34.1779
          34.1779
          34.1779
          34.1779
          34.1779
          34.1779
          34.1779
          34.1779
          34.1779
          34.1779
          34.1779
          34.1779
          34.1779
          34.1779
          34.1779
          34.1779
          34.1779
          34.1779
          34.1779
          34.1779
          34.1779
          34.1779
          34.1779
          34.1779
          34.1779
          34.1779
          46.6179
          46.619
          46.6192
          46.6187
          34.1779
          34.1779
          46.8758
          46.8764
          46.8764
          46.8758
          34.1779
          34.1779
          46.9112
          46.9118
          46.9118
          46.9111
          34.1779
          34.1779
          46.6856
          46.6862
          46.686
          46.6849
          34.1779
          34.1779
          34.1779
          34.1779
          34.1779
          34.1779
          34.1779
          34.1779
          34.1779
          46.6198
          46.6202
          46.6204
          46.6203
          34.1779
          34.1779
          46.8774
          46.8775
          46.8775
          46.8774
          34.1779
          34.1779
          46.9127
          46.9129
          46.9129
          46.9127
          34.1779
          34.1779
          46.6873
          46.6873
          46.6872
          46.6868
          34.1779
          34.1779
          34.1779
          34.1779
          34.1779
          34.1779
          34.1779
          34.1779
          34.1779
          46.6221
          46.6225
          46.6226
          46.6226
          34.1779
          34.1779
          46.8795
          46.8795
          46.8795
          46.8795
          34.1779
          34.1779
          46.9148
          46.9149
          46.9149
          46.9148
          34.1779
          34.1779
          46.6896
          46.6896
          46.6894
          46.6891
          34.1779
          34.1779
          34.1779
          34.1779
          34.1779
          34.1779
          34.1779
          34.1779
          34.1779
          46.6253
          46.6256
          46.6258
          46.6258
          34.1779
          34.1779
          46.8823
          46.8823
          46.8823
          46.8823
          34.1779
          34.1779
          46.9177
          46.9177
          46.9177
          46.9177
          34.1779
          34.1779
          46.6927
          46.6926
          46.6925
          46.6922
          34.1779
          34.1779
          34.1779
          34.1779
          34.1779
          34.1779
          34.1779
          34.1779
          34.1779
          46.6293
          46.6296
          46.6298
          46.6298
          34.1779
          34.1779
          46.8858
          46.8859
          46.8859
          46.8859
          34.1779
          34.1779
          46.9212
          46.9213
          46.9213
          46.9212
          34.1779
          34.1779
          46.6966
          46.6966
          46.6964
          46.6961
          34.1779
          34.1779
          34.1779
          34.1779
          34.1779
          34.1779
          34.1779
          34.1779
          34.1779
          46.6341
          46.6344
          46.6346
          46.6346
          34.1779
          34.1779
          46.8901
          46.8902
          46.8902
          46.8901
          34.1779
          34.1779
          46.9255
          46.9256
          46.9256
          46.9255
          34.1779
          34.1779
          46.7013
          46.7013
          46.7012
          46.7009
          34.1779
          34.1779
          34.1779
          34.1779
          34.1779
          34.1779
          34.1779
          34.1779
          34.1779
          46.6398
          46.6401
          46.6403
          46.6403
          34.1779
          34.1779
          46.8952
          46.8952
          46.8952
          46.8952
          34.1779
          34.1779
          46.9306
          46.9306
          46.9306
          46.9305
          34.1779
          34.1779
          46.7069
          46.7069
          46.7068
          46.7065
          34.1779
          34.1779
          34.1779
          34.1779
          34.1779
          34.1779
          34.1779
          34.1779
          34.1779
          46.6463
          46.6467
          46.6468
          46.6469
          34.1779
          34.1779
          46.9009
          46.901
          46.901
          46.9009
          34.1779
          34.1779
          46.9363
          46.9364
          46.9364
          46.9363
          34.1779
          34.1779
          46.7133
          46.7133
          46.7132
          46.7129
          34.1779
          34.1779
          34.1779
          34.1779
          34.1779
          34.1779
          34.1779
          34.1779
          34.1779
          46.6537
          46.654
          46.6542
          46.6542
          34.1779
          34.1779
          46.9074
          46.9074
          46.9074
          46.9074
          34.1779
          34.1779
          46.9428
          46.9428
          46.9428
          46.9428
          34.1779
          34.1779
          46.7205
          46.7205
          46.7204
          46.7201
          34.1779
          34.1779
          34.1779
          34.1779
          34.1779
          34.1779
          34.1779
          34.1779
          34.1779
          46.6619
          46.6623
          46.6624
          46.6625
          34.1779
          34.1779
          46.9146
          46.9147
          46.9147
          46.9146
          34.1779
          34.1779
          46.95
          46.9501
          46.9501
          46.95
          34.1779
          34.1779
          46.7286
          46.7286
          46.7284
          46.7281
          34.1779
          34.1779
          34.1779
          34.1779
          34.1779
          34.1779
          34.1779
          34.1779
          34.1779
          46.671
          46.6713
          46.6715
          46.6715
          34.1779
          34.1779
          46.9226
          46.9226
          46.9226
          46.9226
          34.1779
          34.1779
          46.958
          46.958
          46.958
          46.958
          34.1779
          34.1779
          46.7374
          46.7374
          46.7373
          46.737
          34.1779
          34.1779
          34.1779
          34.1779
          34.1779
          34.1779
          34.1779
          34.1779
          34.1779
          46.6809
          46.6812
          46.6814
          46.6814
          34.1779
          34.1779
          46.9313
          46.9313
          46.9313
          46.9313
          34.1779
          34.1779
          46.9667
          46.9667
          46.9667
          46.9667
          34.1779
          34.1779
          46.7471
          46.7471
          46.747
          46.7467
          34.1779
          34.1779
          34.1779
          34.1779
          34.1779
          34.1779
          34.1779
          34.1779
          34.1779
          46.6916
          46.692
          46.6922
          46.6922
          34.1779
          34.1779
          46.9407
          46.9407
          46.9407
          46.9407
          34.1779
          34.1779
          46.9761
          46.9761
          46.9761
          46.9761
          34.1779
          34.1779
          46.7576
          46.7576
          46.7575
          46.7572
          34.1779
          34.1779
          34.1779
          34.1779
          34.1779
          34.1779
          34.1779
          34.1779
          34.1779
          46.7032
          46.7036
          46.7038
          46.7038
          34.1779
          34.1779
          46.9508
          46.9509
          46.9509
          46.9508
          34.1779
          34.1779
          46.9862
          46.9863
          46.9863
          46.9862
          34.1779
          34.1779
          46.7689
          46.7689
          46.7688
          46.7685
          34.1779
          34.1779
          34.1779
          34.1779
          34.1779
          34.1779
          34.1779
          34.1779
          34.1779
          46.7157
          46.716
          46.7162
          46.7162
          34.1779
          34.1779
          46.9617
          46.9617
          46.9617
          46.9617
          34.1779
          34.1779
          46.9971
          46.9972
          46.9972
          46.9971
          34.1779
          34.1779
          46.7811
          46.7811
          46.7809
          46.7807
          34.1779
          34.1779
          34.1779
          34.1779
          34.1779
          34.1779
          34.1779
          34.1779
          34.1779
          46.729
          46.7293
          46.7295
          46.7295
          34.1779
          34.1779
          46.9733
          46.9733
          46.9733
          46.9733
          34.1779
          34.1779
          47.0087
          47.0088
          47.0088
          47.0087
          34.1779
          34.1779
          46.7941
          46.794
          46.7939
          46.7936
          34.1779
          34.1779
          34.1779
          34.1779
          34.1779
          34.1779
          34.1779
          34.1779
          34.1779
          46.7431
          46.7434
          46.7436
          46.7436
          34.1779
          34.1779
          46.9856
          46.9857
          46.9857
          46.9856
          34.1779
          34.1779
          47.0211
          47.0211
          47.0211
          47.0211
          34.1779
          34.1779
          46.8078
          46.8078
          46.8077
          46.8074
          34.1779
          34.1779
          34.1779
          34.1779
          34.1779
          34.1779
          34.1779
          34.1779
          34.1779
          46.758
          46.7584
          46.7586
          46.7586
          34.1779
          34.1779
          46.9987
          46.9987
          46.9988
          46.9987
          34.1779
          34.1779
          47.0342
          47.0342
          47.0342
          47.0342
          34.1779
          34.1779
          46.8225
          46.8224
          46.8223
          46.822
          34.1779
          34.1779
          34.1779
          34.1779
          34.1779
          34.1779
          34.1779
          34.1779
          34.1779
          46.7738
          46.7742
          46.7744
          46.7744
          34.1779
          34.1779
          47.0125
          47.0125
          47.0126
          47.0125
          34.1779
          34.1779
          47.048
          47.048
          47.048
          47.048
          34.1779
          34.1779
          46.8379
          46.8379
          46.8377
          46.8374
          34.1779
          34.1779
          34.1779
          34.1779
          34.1779
          34.1779
          34.1779
          34.1779
          34.1779
          46.7904
          46.7908
          46.7911
          46.7911
          34.1779
          34.1779
          47.027
          47.027
          47.0271
          47.0271
          34.1779
          34.1779
          47.0626
          47.0626
          47.0625
          47.0625
          34.1779
          34.1779
          46.8542
          46.8541
          46.8539
          46.8536
          34.1779
          34.1779
          34.1779
          34.1779
          34.1779
          34.1779
          34.1779
          34.1779
          34.1779
          46.8078
          46.8082
          46.8086
          46.8088
          34.1779
          34.1779
          47.042
          47.0422
          47.0425
          47.0426
          34.1779
          34.1779
          47.078
          47.0779
          47.0778
          47.0776
          34.1779
          34.1779
          46.8714
          46.8713
          46.8709
          46.8705
          34.1779
          34.1779
          34.1779
          34.1779
          34.1779
          34.1779
          34.1779
          34.1779
          34.1779
          46.8256
          46.8262
          46.8272
          46.8276
          34.1779
          34.1779
          47.0575
          47.0579
          47.0588
          47.0591
          34.1779
          34.1779
          47.0944
          47.0941
          47.0936
          47.0933
          34.1779
          34.1779
          46.8898
          46.8894
          46.8885
          46.8879
          34.1779
          34.1779
          34.1779
          34.1779
          34.1779
          34.1779
          34.1779
          34.1779
          34.1779
          46.8429
          46.8445
          46.8472
          46.8486
          34.1779
          34.1779
          47.0723
          47.0738
          47.0764
          47.0777
          34.1779
          34.1779
          47.1123
          47.1114
          47.1097
          47.1088
          34.1779
          34.1779
          46.9104
          46.9089
          46.9063
          46.9047
          34.1779
          34.1779
          34.1779
          34.1779
          34.1779
          34.1779
          34.1779
          34.1779
          34.1779
          46.8577
          46.8611
          46.8705
          46.8738
          34.1779
          34.1779
          47.0844
          47.0879
          47.0972
          47.1005
          34.1779
          34.1779
          47.1333
          47.1311
          47.125
          47.1227
          34.1779
          34.1779
          46.9351
          46.9317
          46.9223
          46.9189
          34.1779
          34.1779
          34.1779
          34.1779
          34.1779
          46.7561
          46.7911
          46.816
          46.8387
          46.8611
          46.8745
          46.8927
          46.9233
          46.9884
          47.0355
          47.0803
          47.101
          47.1196
          47.1426
          47.1785
          47.1857
          47.1669
          47.1522
          47.14
          47.1258
          47.0908
          47.0475
          46.9841
          46.9536
          46.9352
          46.9214
          46.8982
          46.8756
          46.8525
          46.8275
          46.7925
          46.7703
          46.7944
          46.8174
          46.8395
          46.8611
          46.8836
          46.9102
          46.9466
          46.9904
          47.0381
          47.0803
          47.1159
          47.1443
          47.1692
          47.1874
          47.1945
          47.1893
          47.1761
          47.158
          47.1314
          47.0954
          47.0508
          47.0075
          46.971
          46.9441
          46.9209
          46.8988
          46.8762
          46.8539
          46.8309
          46.8067
          46.7861
          46.801
          46.8196
          46.8408
          46.8636
          46.8891
          46.919
          46.9547
          46.9964
          47.0426
          47.0929
          47.1385
          47.1725
          47.1973
          47.2135
          47.22
          47.2168
          47.2046
          47.1835
          47.1521
          47.1077
          47.0591
          47.0163
          46.9799
          46.9493
          46.9232
          46.8995
          46.8771
          46.856
          46.8374
          46.8225
          46.7977
          46.8037
          46.8207
          46.8414
          46.8646
          46.8909
          46.9215
          46.9573
          46.9985
          47.0451
          47.1008
          47.1526
          47.1883
          47.2135
          47.2293
          47.2358
          47.2328
          47.2206
          47.1987
          47.1656
          47.1158
          47.0624
          47.0192
          46.9824
          46.9512
          46.9241
          46.8999
          46.8775
          46.8571
          46.8401
          46.8341
        </DataArray>
      </PointData>
      <CellData>
      </CellData>
      <Points>
        <DataArray type="Float32" NumberOfComponents="3" format="ascii">
          0.039 0.00195 0.0
          0.0377 0.00195 0.0
          0.0364 0.00195 0.0
          0.0351 0.00195 0.0
          0.0338 0.00195 0.0
          0.0325 0.00195 0.0
          0.0312 0.00195 0.0
          0.0299 0.00195 0.0
          0.0286 0.00195 0.0
          0.0273 0.00195 0.0
          0.026 0.00195 0.0
          0.0247 0.00195 0.0
          0.0234 0.00195 0.0
          0.0221 0.00195 0.0
          0.0208 0.00195 0.0
          0.0195 0.00195 0.0
          0.0182 0.00195 0.0
          0.0169 0.00195 0.0
          0.0156 0.00195 0.0
          0.0143 0.00195 0.0
          0.013 0.00195 0.0
          0.0117 0.00195 0.0
          0.0104 0.00195 0.0
          0.0091 0.00195 0.0
          0.0078 0.00195 0.0
          0.0065 0.00195 0.0
          0.0052 0.00195 0.0
          0.0039 0.00195 0.0
          0.0026 0.00195 0.0
          0.0013 0.00195 0.0
          0 0.00195 0.0
          0.039 0.00065 0.0
          0.0377 0.00065 0.0
          0.0364 0.00065 0.0
          0.0351 0.00065 0.0
          0.0338 0.00065 0.0
          0.0325 0.00065 0.0
          0.0312 0.00065 0.0
          0.0299 0.00065 0.0
          0.0286 0.00065 0.0
          0.0273 0.00065 0.0
          0.026 0.00065 0.0
          0.0247 0.00065 0.0
          0.0234 0.00065 0.0
          0.0221 0.00065 0.0
          0.0208 0.00065 0.0
          0.0195 0.00065 0.0
          0.0182 0.00065 0.0
          0.0169 0.00065 0.0
          0.0156 0.00065 0.0
          0.0143 0.00065 0.0
          0.013 0.00065 0.0
          0.0117 0.00065 0.0
          0.0104 0.00065 0.0
          0.0091 0.00065 0.0
          0.0078 0.00065 0.0
          0.0065 0.00065 0.0
          0.0052 0.00065 0.0
          0.0039 0.00065 0.0
          0.0026 0.00065 0.0
          0.0013 0.00065 0.0
          0 0.00065 0.0
          0.039 -0.00065 0.0
          0.0377 -0.00065 0.0
          0.0364 -0.00065 0.0
          0.0351 -0.00065 0.0
          0.0338 -0.00065 0.0
          0.0325 -0.00065 0.0
          0.0312 -0.00065 0.0
          0.0299 -0.00065 0.0
          0.0286 -0.00065 0.0
          0.0273 -0.00065 0.0
          0.026 -0.00065 0.0
          0.0247 -0.00065 0.0
          0.0234 -0.00065 0.0
          0.0221 -0.00065 0.0
          0.0208 -0.00065 0.0
          0.0195 -0.00065 0.0
          0.0182 -0.00065 0.0
          0.0169 -0.00065 0.0
          0.0156 -0.00065 0.0
          0.0143 -0.00065 0.0
          0.013 -0.00065 0.0
          0.0117 -0.00065 0.0
          0.0104 -0.00065 0.0
          0.0091 -0.00065 0.0
          0.0078 -0.00065 0.0
          0.0065 -0.00065 0.0
          0.0052 -0.00065 0.0
          0.0039 -0.00065 0.0
          0.0026 -0.00065 0.0
          0.0013 -0.00065 0.0
          0 -0.00065 0.0
          0.039 -0.00195 0.0
          0.0377 -0.00195 0.0
          0.0364 -0.00195 0.0
          0.0351 -0.00195 0.0
          0.0338 -0.00195 0.0
          0.0325 -0.00195 0.0
          0.0312 -0.00195 0.0
          0.0299 -0.00195 0.0
          0.0286 -0.00195 0.0
          0.0273 -0.00195 0.0
          0.026 -0.00195 0.0
          0.0247 -0.00195 0.0
          0.0234 -0.00195 0.0
          0.0221 -0.00195 0.0
          0.0208 -0.00195 0.0
          0.0195 -0.00195 0.0
          0.0182 -0.00195 0.0
          0.0169 -0.00195 0.0
          0.0156 -0.00195 0.0
          0.0143 -0.00195 0.0
          0.013 -0.00195 0.0
          0.0117 -0.00195 0.0
          0.0104 -0.00195 0.0
          0.0091 -0.00195 0.0
          0.0078 -0.00195 0.0
          0.0065 -0.00195 0.0
          0.0052 -0.00195 0.0
          0.0039 -0.00195 0.0
          0.0026 -0.00195 0.0
          0.0013 -0.00195 0.0
          0 -0.00195 0.0
          0.039 -0.00325 0.0
          0.0377 -0.00325 0.0
          0.0364 -0.00325 0.0
          0.0351 -0.00325 0.0
          0.0338 -0.00325 0.0
          0.0325 -0.00325 0.0
          0.0312 -0.00325 0.0
          0.0299 -0.00325 0.0
          0.0286 -0.00325 0.0
          0.0273 -0.00325 0.0
          0.026 -0.00325 0.0
          0.0247 -0.00325 0.0
          0.0234 -0.00325 0.0
          0.0221 -0.00325 0.0
          0.0208 -0.00325 0.0
          0.0195 -0.00325 0.0
          0.0182 -0.00325 0.0
          0.0169 -0.00325 0.0
          0.0156 -0.00325 0.0
          0.0143 -0.00325 0.0
          0.013 -0.00325 0.0
          0.0117 -0.00325 0.0
          0.0104 -0.00325 0.0
          0.0091 -0.00325 0.0
          0.0078 -0.00325 0.0
          0.0065 -0.00325 0.0
          0.0052 -0.00325 0.0
          0.0039 -0.00325 0.0
          0.0026 -0.00325 0.0
          0.0013 -0.00325 0.0
          0 -0.00325 0.0
          0.039 -0.00455 0.0
          0.0377 -0.00455 0.0
          0.0364 -0.00455 0.0
          0.0351 -0.00455 0.0
          0.0338 -0.00455 0.0
          0.0325 -0.00455 0.0
          0.0312 -0.00455 0.0
          0.0299 -0.00455 0.0
          0.0286 -0.00455 0.0
          0.0273 -0.00455 0.0
          0.026 -0.00455 0.0
          0.0247 -0.00455 0.0
          0.0234 -0.00455 0.0
          0.0221 -0.00455 0.0
          0.0208 -0.00455 0.0
          0.0195 -0.00455 0.0
          0.0182 -0.00455 0.0
          0.0169 -0.00455 0.0
          0.0156 -0.00455 0.0
          0.0143 -0.00455 0.0
          0.013 -0.00455 0.0
          0.0117 -0.00455 0.0
          0.0104 -0.00455 0.0
          0.0091 -0.00455 0.0
          0.0078 -0.00455 0.0
          0.0065 -0.00455 0.0
          0.0052 -0.00455 0.0
          0.0039 -0.00455 0.0
          0.0026 -0.00455 0.0
          0.0013 -0.00455 0.0
          0 -0.00455 0.0
          0.039 -0.00585 0.0
          0.0377 -0.00585 0.0
          0.0364 -0.00585 0.0
          0.0351 -0.00585 0.0
          0.0338 -0.00585 0.0
          0.0325 -0.00585 0.0
          0.0312 -0.00585 0.0
          0.0299 -0.00585 0.0
          0.0286 -0.00585 0.0
          0.0273 -0.00585 0.0
          0.026 -0.00585 0.0
          0.0247 -0.00585 0.0
          0.0234 -0.00585 0.0
          0.0221 -0.00585 0.0
          0.0208 -0.00585 0.0
          0.0195 -0.00585 0.0
          0.0182 -0.00585 0.0
          0.0169 -0.00585 0.0
          0.0156 -0.00585 0.0
          0.0143 -0.00585 0.0
          0.013 -0.00585 0.0
          0.0117 -0.00585 0.0
          0.0104 -0.00585 0.0
          0.0091 -0.00585 0.0
          0.0078 -0.00585 0.0
          0.0065 -0.00585 0.0
          0.0052 -0.00585 0.0
          0.0039 -0.00585 0.0
          0.0026 -0.00585 0.0
          0.0013 -0.00585 0.0
          0 -0.00585 0.0
          0.039 -0.00715 0.0
          0.0377 -0.00715 0.0
          0.0364 -0.00715 0.0
          0.0351 -0.00715 0.0
          0.0338 -0.00715 0.0
          0.0325 -0.00715 0.0
          0.0312 -0.00715 0.0
          0.0299 -0.00715 0.0
          0.0286 -0.00715 0.0
          0.0273 -0.00715 0.0
          0.026 -0.00715 0.0
          0.0247 -0.00715 0.0
          0.0234 -0.00715 0.0
          0.0221 -0.00715 0.0
          0.0208 -0.00715 0.0
          0.0195 -0.00715 0.0
          0.0182 -0.00715 0.0
          0.0169 -0.00715 0.0
          0.0156 -0.00715 0.0
          0.0143 -0.00715 0.0
          0.013 -0.00715 0.0
          0.0117 -0.00715 0.0
          0.0104 -0.00715 0.0
          0.0091 -0.00715 0.0
          0.0078 -0.00715 0.0
          0.0065 -0.00715 0.0
          0.0052 -0.00715 0.0
          0.0039 -0.00715 0.0
          0.0026 -0.00715 0.0
          0.0013 -0.00715 0.0
          0 -0.00715 0.0
          0.039 -0.00845 0.0
          0.0377 -0.00845 0.0
          0.0364 -0.00845 0.0
          0.0351 -0.00845 0.0
          0.0338 -0.00845 0.0
          0.0325 -0.00845 0.0
          0.0312 -0.00845 0.0
          0.0299 -0.00845 0.0
          0.0286 -0.00845 0.0
          0.0273 -0.00845 0.0
          0.026 -0.00845 0.0
          0.0247 -0.00845 0.0
          0.0234 -0.00845 0.0
          0.0221 -0.00845 0.0
          0.0208 -0.00845 0.0
          0.0195 -0.00845 0.0
          0.0182 -0.00845 0.0
          0.0169 -0.00845 0.0
          0.0156 -0.00845 0.0
          0.0143 -0.00845 0.0
          0.013 -0.00845 0.0
          0.0117 -0.00845 0.0
          0.0104 -0.00845 0.0
          0.0091 -0.00845 0.0
          0.0078 -0.00845 0.0
          0.0065 -0.00845 0.0
          0.0052 -0.00845 0.0
          0.0039 -0.00845 0.0
          0.0026 -0.00845 0.0
          0.0013 -0.00845 0.0
          0 -0.00845 0.0
          0.039 -0.00975 0.0
          0.0377 -0.00975 0.0
          0.0364 -0.00975 0.0
          0.0351 -0.00975 0.0
          0.0338 -0.00975 0.0
          0.0325 -0.00975 0.0
          0.0312 -0.00975 0.0
          0.0299 -0.00975 0.0
          0.0286 -0.00975 0.0
          0.0273 -0.00975 0.0
          0.026 -0.00975 0.0
          0.0247 -0.00975 0.0
          0.0234 -0.00975 0.0
          0.0221 -0.00975 0.0
          0.0208 -0.00975 0.0
          0.0195 -0.00975 0.0
          0.0182 -0.00975 0.0
          0.0169 -0.00975 0.0
          0.0156 -0.00975 0.0
          0.0143 -0.00975 0.0
          0.013 -0.00975 0.0
          0.0117 -0.00975 0.0
          0.0104 -0.00975 0.0
          0.0091 -0.00975 0.0
          0.0078 -0.00975 0.0
          0.0065 -0.00975 0.0
          0.0052 -0.00975 0.0
          0.0039 -0.00975 0.0
          0.0026 -0.00975 0.0
          0.0013 -0.00975 0.0
          0 -0.00975 0.0
          0.039 -0.01105 0.0
          0.0377 -0.01105 0.0
          0.0364 -0.01105 0.0
          0.0351 -0.01105 0.0
          0.0338 -0.01105 0.0
          0.0325 -0.01105 0.0
          0.0312 -0.01105 0.0
          0.0299 -0.01105 0.0
          0.0286 -0.01105 0.0
          0.0273 -0.01105 0.0
          0.026 -0.01105 0.0
          0.0247 -0.01105 0.0
          0.0234 -0.01105 0.0
          0.0221 -0.01105 0.0
          0.0208 -0.01105 0.0
          0.0195 -0.01105 0.0
          0.0182 -0.01105 0.0
          0.0169 -0.01105 0.0
          0.0156 -0.01105 0.0
          0.0143 -0.01105 0.0
          0.013 -0.01105 0.0
          0.0117 -0.01105 0.0
          0.0104 -0.01105 0.0
          0.0091 -0.01105 0.0
          0.0078 -0.01105 0.0
          0.0065 -0.01105 0.0
          0.0052 -0.01105 0.0
          0.0039 -0.01105 0.0
          0.0026 -0.01105 0.0
          0.0013 -0.01105 0.0
          0 -0.01105 0.0
          0.039 -0.01235 0.0
          0.0377 -0.01235 0.0
          0.0364 -0.01235 0.0
          0.0351 -0.01235 0.0
          0.0338 -0.01235 0.0
          0.0325 -0.01235 0.0
          0.0312 -0.01235 0.0
          0.0299 -0.01235 0.0
          0.0286 -0.01235 0.0
          0.0273 -0.01235 0.0
          0.026 -0.01235 0.0
          0.0247 -0.01235 0.0
          0.0234 -0.01235 0.0
          0.0221 -0.01235 0.0
          0.0208 -0.01235 0.0
          0.0195 -0.01235 0.0
          0.0182 -0.01235 0.0
          0.0169 -0.01235 0.0
          0.0156 -0.01235 0.0
          0.0143 -0.01235 0.0
          0.013 -0.01235 0.0
          0.0117 -0.01235 0.0
          0.0104 -0.01235 0.0
          0.0091 -0.01235 0.0
          0.0078 -0.01235 0.0
          0.0065 -0.01235 0.0
          0.0052 -0.01235 0.0
          0.0039 -0.01235 0.0
          0.0026 -0.01235 0.0
          0.0013 -0.01235 0.0
          0 -0.01235 0.0
          0.039 -0.01365 0.0
          0.0377 -0.01365 0.0
          0.0364 -0.01365 0.0
          0.0351 -0.01365 0.0
          0.0338 -0.01365 0.0
          0.0325 -0.01365 0.0
          0.0312 -0.01365 0.0
          0.0299 -0.01365 0.0
          0.0286 -0.01365 0.0
          0.0273 -0.01365 0.0
          0.026 -0.01365 0.0
          0.0247 -0.01365 0.0
          0.0234 -0.01365 0.0
          0.0221 -0.01365 0.0
          0.0208 -0.01365 0.0
          0.0195 -0.01365 0.0
          0.0182 -0.01365 0.0
          0.0169 -0.01365 0.0
          0.0156 -0.01365 0.0
          0.0143 -0.01365 0.0
          0.013 -0.01365 0.0
          0.0117 -0.01365 0.0
          0.0104 -0.01365 0.0
          0.0091 -0.01365 0.0
          0.0078 -0.01365 0.0
          0.0065 -0.01365 0.0
          0.0052 -0.01365 0.0
          0.0039 -0.01365 0.0
          0.0026 -0.01365 0.0
          0.0013 -0.01365 0.0
          0 -0.01365 0.0
          0.039 -0.01495 0.0
          0.0377 -0.01495 0.0
          0.0364 -0.01495 0.0
          0.0351 -0.01495 0.0
          0.0338 -0.01495 0.0
          0.0325 -0.01495 0.0
          0.0312 -0.01495 0.0
          0.0299 -0.01495 0.0
          0.0286 -0.01495 0.0
          0.0273 -0.01495 0.0
          0.026 -0.01495 0.0
          0.0247 -0.01495 0.0