<?xml version="1.0"?>
<VTKFile type="UnstructuredGrid" version="0.1" byte_order="LittleEndian">
  <UnstructuredGrid>
    <Piece NumberOfPoints="961" NumberOfCells="900">
      <PointData Scalars="Temperature">
        <DataArray type="Float32" Name="Temperature" format="ascii">
          42.9323
          42.9323
          42.9323
          42.9323
          42.9323
          42.9323
          42.9323
          42.9323
          42.9323
          42.9323
          42.9323
          42.9323
          42.9323
          42.9323
          42.9323
          42.9323
          42.9323
          42.9323
          42.9323
          42.9323
          42.9323
          42.9323
          42.9323
          42.9323
          42.9323
          42.9323
          42.9323
          42.9323
          42.9323
          42.9323
          42.9323
          42.9323
          42.9323
          42.9323
          42.9323
          42.9323
          42.9323
          42.9323
          42.9323
          42.9323
          42.9323
          42.9323
          42.9323
          42.9323
          42.9323
          42.9323
          42.9323
          42.9323
          42.9323
          42.9323
          42.9323
          42.9323
          42.9323
          42.9323
          42.9323
          42.9323
          42.9323
          42.9323
          42.9323
          42.9323
          42.9323
          42.9323
          42.9323
          42.9323
          42.9323
          42.9323
          42.9323
          42.9323
          42.9323
          42.9323
          42.9323
          42.9323
          42.9323
          42.9323
          42.9323
          42.9323
          42.9323
          42.9323
          42.9323
          42.9323
          42.9323
          42.9323
          42.9323
          42.9323
          42.9323
          42.9323
          42.9323
          42.9323
          42.9323
          42.9323
          42.9323
          42.9323
          42.9323
          42.9323
          42.9323
          42.9323
          42.9323
          63.7465
          63.7484
          63.7488
          63.7478
          42.9323
          42.9323
          64.0686
          64.0696
          64.0697
          64.0686
          42.9323
          42.9323
          64.1056
          64.1066
          64.1066
          64.1056
          42.9323
          42.9323
          63.8241
          63.825
          63.8247
          63.8229
          42.9323
          42.9323
          42.9323
          42.9323
          42.9323
          42.9323
          42.9323
          42.9323
          42.9323
          63.7492
          63.7499
          63.7503
          63.7502
          42.9323
          42.9323
          64.0708
          64.0711
          64.0711
          64.0709
          42.9323
          42.9323
          64.1078
          64.1081
          64.108
          64.1078
          42.9323
          42.9323
          63.8264
          63.8266
          63.8262
          63.8256
          42.9323
          42.9323
          42.9323
          42.9323
          42.9323
          42.9323
          42.9323
          42.9323
          42.9323
          63.752
          63.7526
          63.7529
          63.753
          42.9323
          42.9323
          64.0732
          64.0733
          64.0734
          64.0732
          42.9323
          42.9323
          64.1102
          64.1103
          64.1103
          64.1102
          42.9323
          42.9323
          63.8291
          63.8291
          63.8289
          63.8284
          42.9323
          42.9323
          42.9323
          42.9323
          42.9323
          42.9323
          42.9323
          42.9323
          42.9323
          63.7555
          63.756
          63.7564
          63.7564
          42.9323
          42.9323
          64.0761
          64.0762
          64.0762
          64.0761
          42.9323
          42.9323
          64.1131
          64.1132
          64.1132
          64.1131
          42.9323
          42.9323
          63.8325
          63.8325
          63.8322
          63.8317
          42.9323
          42.9323
          42.9323
          42.9323
          42.9323
          42.9323
          42.9323
          42.9323
          42.9323
          63.7596
          63.7601
          63.7604
          63.7605
          42.9323
          42.9323
          64.0794
          64.0795
          64.0795
          64.0794
          42.9323
          42.9323
          64.1164
          64.1165
          64.1165
          64.1164
          42.9323
          42.9323
          63.8364
          63.8364
          63.8362
          63.8357
          42.9323
          42.9323
          42.9323
          42.9323
          42.9323
          42.9323
          42.9323
          42.9323
          42.9323
          63.7644
          63.7649
          63.7652
          63.7653
          42.9323
          42.9323
          64.0833
          64.0833
          64.0833
          64.0833
          42.9323
          42.9323
          64.1203
          64.1203
          64.1203
          64.1203
          42.9323
          42.9323
          63.8411
          63.841
          63.8408
          63.8403
          42.9323
          42.9323
          42.9323
          42.9323
          42.9323
          42.9323
          42.9323
          42.9323
          42.9323
          63.7698
          63.7704
          63.7707
          63.7707
          42.9323
          42.9323
          64.0876
          64.0876
          64.0876
          64.0876
          42.9323
          42.9323
          64.1246
          64.1246
          64.1246
          64.1246
          42.9323
          42.9323
          63.8463
          63.8463
          63.8461
          63.8456
          42.9323
          42.9323
          42.9323
          42.9323
          42.9323
          42.9323
          42.9323
          42.9323
          42.9323
          63.7759
          63.7765
          63.7768
          63.7768
          42.9323
          42.9323
          64.0924
          64.0924
          64.0924
          64.0924
          42.9323
          42.9323
          64.1294
          64.1294
          64.1294
          64.1294
          42.9323
          42.9323
          63.8522
          63.8522
          63.8519
          63.8515
          42.9323
          42.9323
          42.9323
          42.9323
          42.9323
          42.9323
          42.9323
          42.9323
          42.9323
          63.7827
          63.7833
          63.7836
          63.7836
          42.9323
          42.9323
          64.0976
          64.0977
          64.0977
          64.0976
          42.9323
          42.9323
          64.1346
          64.1347
          64.1347
          64.1346
          42.9323
          42.9323
          63.8587
          63.8587
          63.8585
          63.858
          42.9323
          42.9323
          42.9323
          42.9323
          42.9323
          42.9323
          42.9323
          42.9323
          42.9323
          63.7902
          63.7908
          63.791
          63.7911
          42.9323
          42.9323
          64.1034
          64.1035
          64.1035
          64.1034
          42.9323
          42.9323
          64.1404
          64.1405
          64.1405
          64.1404
          42.9323
          42.9323
          63.8659
          63.8659
          63.8656
          63.8652
          42.9323
          42.9323
          42.9323
          42.9323
          42.9323
          42.9323
          42.9323
          42.9323
          42.9323
          63.7983
          63.7989
          63.7992
          63.7992
          42.9323
          42.9323
          64.1096
          64.1097
          64.1097
          64.1096
          42.9323
          42.9323
          64.1466
          64.1467
          64.1467
          64.1466
          42.9323
          42.9323
          63.8737
          63.8737
          63.8734
          63.873
          42.9323
          42.9323
          42.9323
          42.9323
          42.9323
          42.9323
          42.9323
          42.9323
          42.9323
          63.8071
          63.8077
          63.808
          63.808
          42.9323
          42.9323
          64.1163
          64.1164
          64.1164
          64.1163
          42.9323
          42.9323
          64.1534
          64.1534
          64.1534
          64.1534
          42.9323
          42.9323
          63.8821
          63.8821
          63.8818
          63.8814
          42.9323
          42.9323
          42.9323
          42.9323
          42.9323
          42.9323
          42.9323
          42.9323
          42.9323
          63.8166
          63.8172
          63.8175
          63.8175
          42.9323
          42.9323
          64.1235
          64.1236
          64.1236
          64.1235
          42.9323
          42.9323
          64.1606
          64.1606
          64.1606
          64.1606
          42.9323
          42.9323
          63.8912
          63.8911
          63.8909
          63.8904
          42.9323
          42.9323
          42.9323
          42.9323
          42.9323
          42.9323
          42.9323
          42.9323
          42.9323
          63.8268
          63.8273
          63.8276
          63.8277
          42.9323
          42.9323
          64.1312
          64.1313
          64.1313
          64.1312
          42.9323
          42.9323
          64.1682
          64.1683
          64.1683
          64.1682
          42.9323
          42.9323
          63.9009
          63.9008
          63.9006
          63.9001
          42.9323
          42.9323
          42.9323
          42.9323
          42.9323
          42.9323
          42.9323
          42.9323
          42.9323
          63.8376
          63.8381
          63.8384
          63.8385
          42.9323
          42.9323
          64.1394
          64.1394
          64.1394
          64.1394
          42.9323
          42.9323
          64.1764
          64.1765
          64.1765
          64.1764
          42.9323
          42.9323
          63.9112
          63.9112
          63.9109
          63.9105
          42.9323
          42.9323
          42.9323
          42.9323
          42.9323
          42.9323
          42.9323
          42.9323
          42.9323
          63.8491
          63.8496
          63.8499
          63.85
          42.9323
          42.9323
          64.148
          64.1481
          64.1481
          64.148
          42.9323
          42.9323
          64.1851
          64.1851
          64.1851
          64.1851
          42.9323
          42.9323
          63.9221
          63.9221
          63.9219
          63.9214
          42.9323
          42.9323
          42.9323
          42.9323
          42.9323
          42.9323
          42.9323
          42.9323
          42.9323
          63.8612
          63.8618
          63.8621
          63.8621
          42.9323
          42.9323
          64.1571
          64.1572
          64.1572
          64.1571
          42.9323
          42.9323
          64.1942
          64.1943
          64.1943
          64.1942
          42.9323
          42.9323
          63.9337
          63.9337
          63.9335
          63.933
          42.9323
          42.9323
          42.9323
          42.9323
          42.9323
          42.9323
          42.9323
          42.9323
          42.9323
          63.8741
          63.8746
          63.8749
          63.875
          42.9323
          42.9323
          64.1667
          64.1668
          64.1668
          64.1667
          42.9323
          42.9323
          64.2038
          64.2039
          64.2039
          64.2038
          42.9323
          42.9323
          63.946
          63.9459
          63.9457
          63.9452
          42.9323
          42.9323
          42.9323
          42.9323
          42.9323
          42.9323
          42.9323
          42.9323
          42.9323
          63.8876
          63.8881
          63.8885
          63.8885
          42.9323
          42.9323
          64.1768
          64.1769
          64.1769
          64.1768
          42.9323
          42.9323
          64.2139
          64.214
          64.2139
          64.2139
          42.9323
          42.9323
          63.9588
          63.9588
          63.9585
          63.9581
          42.9323
          42.9323
          42.9323
          42.9323
          42.9323
          42.9323
          42.9323
          42.9323
          42.9323
          63.9017
          63.9023
          63.9027
          63.9027
          42.9323
          42.9323
          64.1873
          64.1874
          64.1875
          64.1875
          42.9323
          42.9323
          64.2245
          64.2246
          64.2245
          64.2244
          42.9323
          42.9323
          63.9724
          63.9723
          63.972
          63.9715
          42.9323
          42.9323
          42.9323
          42.9323
          42.9323
          42.9323
          42.9323
          42.9323
          42.9323
          63.9163
          63.917
          63.9176
          63.9178
          42.9323
          42.9323
          64.1981
          64.1983
          64.1986
          64.1987
          42.9323
          42.9323
          64.2357
          64.2357
          64.2355
          64.2353
          42.9323
          42.9323
          63.9867
          63.9865
          63.986
          63.9854
          42.9323
          42.9323
          42.9323
          42.9323
          42.9323
          42.9323
          42.9323
          42.9323
          42.9323
          63.9312
          63.9321
          63.9334
          63.934
          42.9323
          42.9323
          64.209
          64.2095
          64.2105
          64.2109
          42.9323
          42.9323
          64.2477
          64.2474
          64.2468
          64.2464
          42.9323
          42.9323
          64.0021
          64.0016
          64.0004
          63.9995
          42.9323
          42.9323
          42.9323
          42.9323
          42.9323
          42.9323
          42.9323
          42.9323
          42.9323
          63.945
          63.9472
          63.9506
          63.9525
          42.9323
          42.9323
          64.219
          64.2206
          64.2234
          64.225
          42.9323
          42.9323
          64.2611
          64.2601
          64.2582
          64.257
          42.9323
          42.9323
          64.0198
          64.018
          64.0146
          64.0125
          42.9323
          42.9323
          42.9323
          42.9323
          42.9323
          42.9323
          42.9323
          42.9323
          42.9323
          63.955
          63.9596
          63.9717
          63.976
          42.9323
          42.9323
          64.2255
          64.2293
          64.2397
          64.2434
          42.9323
          42.9323
          64.2776
          64.2751
          64.2681
          64.2655
          42.9323
          42.9323
          64.0424
          64.0381
          64.0261
          64.0217
          42.9323
          42.9323
          42.9323
          42.9323
          42.9323
          63.7727
          63.8304
          63.871
          63.9078
          63.9473
          63.9687
          63.9922
          64.0277
          64.1015
          64.1565
          64.212
          64.2375
          64.2581
          64.2813
          64.3163
          64.3238
          64.3066
          64.2922
          64.2783
          64.2597
          64.2147
          64.1642
          64.0929
          64.058
          64.0345
          64.0128
          63.9729
          63.937
          63.9003
          63.8597
          63.802
          63.7962
          63.836
          63.8731
          63.9086
          63.942
          63.9745
          64.0087
          64.0524
          64.1035
          64.1588
          64.2078
          64.2486
          64.2799
          64.3062
          64.325
          64.3324
          64.3272
          64.3131
          64.2924
          64.2612
          64.2191
          64.1673
          64.1173
          64.074
          64.0397
          64.007
          63.9732
          63.9378
          63.9025
          63.8653
          63.8255
          63.8224
          63.8467
          63.8764
          63.9091
          63.943
          63.9783
          64.0168
          64.0603
          64.1094
          64.1624
          64.2188
          64.2692
          64.3065
          64.3333
          64.3504
          64.3573
          64.3536
          64.3399
          64.316
          64.2804
          64.2305
          64.1756
          64.1258
          64.0821
          64.0433
          64.0076
          63.973
          63.9389
          63.9059
          63.8761
          63.8517
          63.8416
          63.8512
          63.878
          63.9097
          63.9436
          63.9797
          64.019
          64.0627
          64.1113
          64.1647
          64.2262
          64.2827
          64.3218
          64.3491
          64.366
          64.3728
          64.3692
          64.3554
          64.3307
          64.2934
          64.2383
          64.1787
          64.1286
          64.0843
          64.0446
          64.008
          63.9731
          63.9394
          63.9075
          63.8806
          63.871
        </DataArray>
      </PointData>
      <CellData>
      </CellData>
      <Points>
        <DataArray type="Float32" NumberOfComponents="3" format="ascii">
          0.039 0.00195 0.0
          0.0377 0.00195 0.0
          0.0364 0.00195 0.0
          0.0351 0.00195 0.0
          0.0338 0.00195 0.0
          0.0325 0.00195 0.0
          0.0312 0.00195 0.0
          0.0299 0.00195 0.0
          0.0286 0.00195 0.0
          0.0273 0.00195 0.0
          0.026 0.00195 0.0
          0.0247 0.00195 0.0
          0.0234 0.00195 0.0
          0.0221 0.00195 0.0
          0.0208 0.00195 0.0
          0.0195 0.00195 0.0
          0.0182 0.00195 0.0
          0.0169 0.00195 0.0
          0.0156 0.00195 0.0
          0.0143 0.00195 0.0
          0.013 0.00195 0.0
          0.0117 0.00195 0.0
          0.0104 0.00195 0.0
          0.0091 0.00195 0.0
          0.0078 0.00195 0.0
          0.0065 0.00195 0.0
          0.0052 0.00195 0.0
          0.0039 0.00195 0.0
          0.0026 0.00195 0.0
          0.0013 0.00195 0.0
          0 0.00195 0.0
          0.039 0.00065 0.0
          0.0377 0.00065 0.0
          0.0364 0.00065 0.0
          0.0351 0.00065 0.0
          0.0338 0.00065 0.0
          0.0325 0.00065 0.0
          0.0312 0.00065 0.0
          0.0299 0.00065 0.0
          0.0286 0.00065 0.0
          0.0273 0.00065 0.0
          0.026 0.00065 0.0
          0.0247 0.00065 0.0
          0.0234 0.00065 0.0
          0.0221 0.00065 0.0
          0.0208 0.00065 0.0
          0.0195 0.00065 0.0
          0.0182 0.00065 0.0
          0.0169 0.00065 0.0
          0.0156 0.00065 0.0
          0.0143 0.00065 0.0
          0.013 0.00065 0.0
          0.0117 0.00065 0.0
          0.0104 0.00065 0.0
          0.0091 0.00065 0.0
          0.0078 0.00065 0.0
          0.0065 0.00065 0.0
          0.0052 0.00065 0.0
          0.0039 0.00065 0.0
          0.0026 0.00065 0.0
          0.0013 0.00065 0.0
          0 0.00065 0.0
          0.039 -0.00065 0.0
          0.0377 -0.00065 0.0
          0.0364 -0.00065 0.0
          0.0351 -0.00065 0.0
          0.0338 -0.00065 0.0
          0.0325 -0.00065 0.0
          0.0312 -0.00065 0.0
          0.0299 -0.00065 0.0
          0.0286 -0.00065 0.0
          0.0273 -0.00065 0.0
          0.026 -0.00065 0.0
          0.0247 -0.00065 0.0
          0.0234 -0.00065 0.0
          0.0221 -0.00065 0.0
          0.0208 -0.00065 0.0
          0.0195 -0.00065 0.0
          0.0182 -0.00065 0.0
          0.0169 -0.00065 0.0
          0.0156 -0.00065 0.0
          0.0143 -0.00065 0.0
          0.013 -0.00065 0.0
          0.0117 -0.00065 0.0
          0.0104 -0.00065 0.0
          0.0091 -0.00065 0.0
          0.0078 -0.00065 0.0
          0.0065 -0.00065 0.0
          0.0052 -0.00065 0.0
          0.0039 -0.00065 0.0
          0.0026 -0.00065 0.0
          0.0013 -0.00065 0.0
          0 -0.00065 0.0
          0.039 -0.00195 0.0
          0.0377 -0.00195 0.0
          0.0364 -0.00195 0.0
          0.0351 -0.00195 0.0
          0.0338 -0.00195 0.0
          0.0325 -0.00195 0.0
          0.0312 -0.00195 0.0
          0.0299 -0.00195 0.0
          0.0286 -0.00195 0.0
          0.0273 -0.00195 0.0
          0.026 -0.00195 0.0
          0.0247 -0.00195 0.0
          0.0234 -0.00195 0.0
          0.0221 -0.00195 0.0
          0.0208 -0.00195 0.0
          0.0195 -0.00195 0.0
          0.0182 -0.00195 0.0
          0.0169 -0.00195 0.0
          0.0156 -0.00195 0.0
          0.0143 -0.00195 0.0
          0.013 -0.00195 0.0
          0.0117 -0.00195 0.0
          0.0104 -0.00195 0.0
          0.0091 -0.00195 0.0
          0.0078 -0.00195 0.0
          0.0065 -0.00195 0.0
          0.0052 -0.00195 0.0
          0.0039 -0.00195 0.0
          0.0026 -0.00195 0.0
          0.0013 -0.00195 0.0
          0 -0.00195 0.0
          0.039 -0.00325 0.0
          0.0377 -0.00325 0.0
          0.0364 -0.00325 0.0
          0.0351 -0.00325 0.0
          0.0338 -0.00325 0.0
          0.0325 -0.00325 0.0
          0.0312 -0.00325 0.0
          0.0299 -0.00325 0.0
          0.0286 -0.00325 0.0
          0.0273 -0.00325 0.0
          0.026 -0.00325 0.0
          0.0247 -0.00325 0.0
          0.0234 -0.00325 0.0
          0.0221 -0.00325 0.0
          0.0208 -0.00325 0.0
          0.0195 -0.00325 0.0
          0.0182 -0.00325 0.0
          0.0169 -0.00325 0.0
          0.0156 -0.00325 0.0
          0.0143 -0.00325 0.0
          0.013 -0.00325 0.0
          0.0117 -0.00325 0.0
          0.0104 -0.00325 0.0
          0.0091 -0.00325 0.0
          0.0078 -0.00325 0.0
          0.0065 -0.00325 0.0
          0.0052 -0.00325 0.0
          0.0039 -0.00325 0.0
          0.0026 -0.00325 0.0
          0.0013 -0.00325 0.0
          0 -0.00325 0.0
          0.039 -0.00455 0.0
          0.0377 -0.00455 0.0
          0.0364 -0.00455 0.0
          0.0351 -0.00455 0.0
          0.0338 -0.00455 0.0
          0.0325 -0.00455 0.0
          0.0312 -0.00455 0.0
          0.0299 -0.00455 0.0
          0.0286 -0.00455 0.0
          0.0273 -0.00455 0.0
          0.026 -0.00455 0.0
          0.0247 -0.00455 0.0
          0.0234 -0.00455 0.0
          0.0221 -0.00455 0.0
          0.0208 -0.00455 0.0
          0.0195 -0.00455 0.0
          0.0182 -0.00455 0.0
          0.0169 -0.00455 0.0
          0.0156 -0.00455 0.0
          0.0143 -0.00455 0.0
          0.013 -0.00455 0.0
          0.0117 -0.00455 0.0
          0.0104 -0.00455 0.0
          0.0091 -0.00455 0.0
          0.0078 -0.00455 0.0
          0.0065 -0.00455 0.0
          0.0052 -0.00455 0.0
          0.0039 -0.00455 0.0
          0.0026 -0.00455 0.0
          0.0013 -0.00455 0.0
          0 -0.00455 0.0
          0.039 -0.00585 0.0
          0.0377 -0.00585 0.0
          0.0364 -0.00585 0.0
          0.0351 -0.00585 0.0
          0.0338 -0.00585 0.0
          0.0325 -0.00585 0.0
          0.0312 -0.00585 0.0
          0.0299 -0.00585 0.0
          0.0286 -0.00585 0.0
          0.0273 -0.00585 0.0
          0.026 -0.00585 0.0
          0.0247 -0.00585 0.0
          0.0234 -0.00585 0.0
          0.0221 -0.00585 0.0
          0.0208 -0.00585 0.0
          0.0195 -0.00585 0.0
          0.0182 -0.00585 0.0
          0.0169 -0.00585 0.0
          0.0156 -0.00585 0.0
          0.0143 -0.00585 0.0
          0.013 -0.00585 0.0
          0.0117 -0.00585 0.0
          0.0104 -0.00585 0.0
          0.0091 -0.00585 0.0
          0.0078 -0.00585 0.0
          0.0065 -0.00585 0.0
          0.0052 -0.00585 0.0
          0.0039 -0.00585 0.0
          0.0026 -0.00585 0.0
          0.0013 -0.00585 0.0
          0 -0.00585 0.0
          0.039 -0.00715 0.0
          0.0377 -0.00715 0.0
          0.0364 -0.00715 0.0
          0.0351 -0.00715 0.0
          0.0338 -0.00715 0.0
          0.0325 -0.00715 0.0
          0.0312 -0.00715 0.0
          0.0299 -0.00715 0.0
          0.0286 -0.00715 0.0
          0.0273 -0.00715 0.0
          0.026 -0.00715 0.0
          0.0247 -0.00715 0.0
          0.0234 -0.00715 0.0
          0.0221 -0.00715 0.0
          0.0208 -0.00715 0.0
          0.0195 -0.00715 0.0
          0.0182 -0.00715 0.0
          0.0169 -0.00715 0.0
          0.0156 -0.00715 0.0
          0.0143 -0.00715 0.0
          0.013 -0.00715 0.0
          0.0117 -0.00715 0.0
          0.0104 -0.00715 0.0
          0.0091 -0.00715 0.0
          0.0078 -0.00715 0.0
          0.0065 -0.00715 0.0
          0.0052 -0.00715 0.0
          0.0039 -0.00715 0.0
          0.0026 -0.00715 0.0
          0.0013 -0.00715 0.0
          0 -0.00715 0.0
          0.039 -0.00845 0.0
          0.0377 -0.00845 0.0
          0.0364 -0.00845 0.0
          0.0351 -0.00845 0.0
          0.0338 -0.00845 0.0
          0.0325 -0.00845 0.0
          0.0312 -0.00845 0.0
          0.0299 -0.00845 0.0
          0.0286 -0.00845 0.0
          0.0273 -0.00845 0.0
          0.026 -0.00845 0.0
          0.0247 -0.00845 0.0
          0.0234 -0.00845 0.0
          0.0221 -0.00845 0.0
          0.0208 -0.00845 0.0
          0.0195 -0.00845 0.0
          0.0182 -0.00845 0.0
          0.0169 -0.00845 0.0
          0.0156 -0.00845 0.0
          0.0143 -0.00845 0.0
          0.013 -0.00845 0.0
          0.0117 -0.00845 0.0
          0.0104 -0.00845 0.0
          0.0091 -0.00845 0.0
          0.0078 -0.00845 0.0
          0.0065 -0.00845 0.0
          0.0052 -0.00845 0.0
          0.0039 -0.00845 0.0
          0.0026 -0.00845 0.0
          0.0013 -0.00845 0.0
          0 -0.00845 0.0
          0.039 -0.00975 0.0
          0.0377 -0.00975 0.0
          0.0364 -0.00975 0.0
          0.0351 -0.00975 0.0
          0.0338 -0.00975 0.0
          0.0325 -0.00975 0.0
          0.0312 -0.00975 0.0
          0.0299 -0.00975 0.0
          0.0286 -0.00975 0.0
          0.0273 -0.00975 0.0
          0.026 -0.00975 0.0
          0.0247 -0.00975 0.0
          0.0234 -0.00975 0.0
          0.0221 -0.00975 0.0
          0.0208 -0.00975 0.0
          0.0195 -0.00975 0.0
          0.0182 -0.00975 0.0
          0.0169 -0.00975 0.0
          0.0156 -0.00975 0.0
          0.0143 -0.00975 0.0
          0.013 -0.00975 0.0
          0.0117 -0.00975 0.0
          0.0104 -0.00975 0.0
          0.0091 -0.00975 0.0
          0.0078 -0.00975 0.0
          0.0065 -0.00975 0.0
          0.0052 -0.00975 0.0
          0.0039 -0.00975 0.0
          0.0026 -0.00975 0.0
          0.0013 -0.00975 0.0
          0 -0.00975 0.0
          0.039 -0.01105 0.0
          0.0377 -0.01105 0.0
          0.0364 -0.01105 0.0
          0.0351 -0.01105 0.0
          0.0338 -0.01105 0.0
          0.0325 -0.01105 0.0
          0.0312 -0.01105 0.0
          0.0299 -0.01105 0.0
          0.0286 -0.01105 0.0
          0.0273 -0.01105 0.0
          0.026 -0.01105 0.0
          0.0247 -0.01105 0.0
          0.0234 -0.01105 0.0
          0.0221 -0.01105 0.0
          0.0208 -0.01105 0.0
          0.0195 -0.01105 0.0
          0.0182 -0.01105 0.0
          0.0169 -0.01105 0.0
          0.0156 -0.01105 0.0
          0.0143 -0.01105 0.0
          0.013 -0.01105 0.0
          0.0117 -0.01105 0.0
          0.0104 -0.01105 0.0
          0.0091 -0.01105 0.0
          0.0078 -0.01105 0.0
          0.0065 -0.01105 0.0
          0.0052 -0.01105 0.0
          0.0039 -0.01105 0.0
          0.0026 -0.01105 0.0
          0.0013 -0.01105 0.0
          0 -0.01105 0.0
          0.039 -0.01235 0.0
          0.0377 -0.01235 0.0
          0.0364 -0.01235 0.0
          0.0351 -0.01235 0.0
          0.0338 -0.01235 0.0
          0.0325 -0.01235 0.0
          0.0312 -0.01235 0.0
          0.0299 -0.01235 0.0
          0.0286 -0.01235 0.0
          0.0273 -0.01235 0.0
          0.026 -0.01235 0.0
          0.0247 -0.01235 0.0
          0.0234 -0.01235 0.0
          0.0221 -0.01235 0.0
          0.0208 -0.01235 0.0
          0.0195 -0.01235 0.0
          0.0182 -0.01235 0.0
          0.0169 -0.01235 0.0
          0.0156 -0.01235 0.0
          0.0143 -0.01235 0.0
          0.013 -0.01235 0.0
          0.0117 -0.01235 0.0
          0.0104 -0.01235 0.0
          0.0091 -0.01235 0.0
          0.0078 -0.01235 0.0
          0.0065 -0.01235 0.0
          0.0052 -0.01235 0.0
          0.0039 -0.01235 0.0
          0.0026 -0.01235 0.0
          0.0013 -0.01235 0.0
          0 -0.01235 0.0
          0.039 -0.01365 0.0
          0.0377 -0.01365 0.0
          0.0364 -0.01365 0.0
          0.0351 -0.01365 0.0
          0.0338 -0.01365 0.0
          0.0325 -0.01365 0.0
          0.0312 -0.01365 0.0
          0.0299 -0.01365 0.0
          0.0286 -0.01365 0.0
          0.0273 -0.01365 0.0
          0.026 -0.01365 0.0
          0.0247 -0.01365 0.0
          0.0234 -0.01365 0.0
          0.0221 -0.01365 0.0
          0.0208 -0.01365 0.0
          0.0195 -0.01365 0.0
          0.0182 -0.01365 0.0
          0.0169 -0.01365 0.0
          0.0156 -0.01365 0.0
          0.0143 -0.01365 0.0
          0.013 -0.01365 0.0
          0.0117 -0.01365 0.0
          0.0104 -0.01365 0.0
          0.0091 -0.01365 0.0
          0.0078 -0.01365 0.0
          0.0065 -0.01365 0.0
          0.0052 -0.01365 0.0
          0.0039 -0.01365 0.0
          0.0026 -0.01365 0.0
          0.0013 -0.01365 0.0
          0 -0.01365 0.0
          0.039 -0.01495 0.0
          0.0377 -0.01495 0.0
          0.0364 -0.01495 0.0
          0.0351 -0.01495 0.0
          0.0338 -0.01495 0.0
          0.0325 -0.01495 0.0
          0.0312 -0.01495 0.0
          0.0299 -0.01495 0.0
          0.0286 -0.01495 0.0
          0.0273 -0.01495 0.0
          0.026 -0.01495 0.0
          0.0247 -0.01495 0.0