<?xml version="1.0"?>
<VTKFile type="UnstructuredGrid" version="0.1" byte_order="LittleEndian">
  <UnstructuredGrid>
    <Piece NumberOfPoints="961" NumberOfCells="900">
      <PointData Scalars="Temperature">
        <DataArray type="Float32" Name="Temperature" format="ascii">
          21.0354
          22.5582
          24.1346
          25.7068
          27.0267
          27.8946
          28.2265
          28.2043
          28.0916
          28.1061
          28.2611
          28.4132
          28.4145
          28.2662
          28.1179
          28.119
          28.2693
          28.4192
          28.4193
          28.2692
          28.1173
          28.1076
          28.2276
          28.2675
          27.9776
          27.1964
          26.0186
          24.6475
          23.3284
          22.1287
          21.0277
          22.5118
          83.7741
          149.44
          215.299
          272.331
          307.906
          320.424
          316.708
          310.314
          310.809
          318.754
          326.585
          326.636
          318.942
          311.256
          311.304
          319.076
          326.83
          326.832
          319.076
          311.258
          310.952
          317.635
          321.928
          310.993
          278.819
          227.68
          170.078
          114.942
          66.7272
          22.0998
          23.8636
          140.206
          266.548
          417.503
          540.028
          617.7
          630.091
          607.161
          581.649
          582.277
          609.518
          636.588
          636.638
          609.783
          582.957
          583.074
          610.075
          637.041
          637.044
          610.094
          583.087
          582.853
          608.81
          632.411
          621.587
          550.216
          439.297
          305.501
          199.451
          107.826
          23.0894
          24.9846
          186.777
          363.947
          575.844
          957.229
          957.272
          957.282
          957.264
          784.529
          785.07
          958.536
          958.557
          958.558
          958.536
          785.786
          785.959
          959.167
          959.188
          959.188
          959.167
          786.126
          786.119
          959.757
          959.776
          959.767
          959.727
          604.705
          418.302
          270.016
          142.502
          23.9269
          25.798
          220.171
          428.97
          676.123
          957.33
          957.345
          957.354
          957.354
          903.166
          903.586
          958.626
          958.629
          958.629
          958.626
          904.248
          904.459
          959.256
          959.26
          959.26
          959.256
          904.767
          904.968
          959.845
          959.846
          959.838
          959.824
          710.102
          495.611
          322.37
          168.966
          24.5722
          26.308
          240.349
          464.563
          704.661
          957.506
          957.519
          957.527
          957.529
          940.523
          940.943
          958.802
          958.803
          958.803
          958.802
          941.576
          941.786
          959.431
          959.432
          959.432
          959.431
          942.174
          942.374
          960.014
          960.013
          960.007
          959.995
          743.238
          540.497
          356.418
          187.14
          25.022
          26.5814
          250.818
          479.943
          716.19
          957.772
          957.785
          957.792
          957.795
          952.458
          952.879
          959.071
          959.071
          959.071
          959.071
          953.502
          953.712
          959.698
          959.698
          959.698
          959.698
          954.123
          954.319
          960.271
          960.27
          960.263
          960.253
          758.193
          562.56
          376.308
          198.429
          25.3069
          26.7126
          255.64
          486.824
          721.246
          958.129
          958.141
          958.148
          958.151
          956.48
          956.902
          959.431
          959.431
          959.431
          959.431
          957.523
          957.732
          960.056
          960.056
          960.056
          960.056
          958.145
          958.337
          960.615
          960.613
          960.607
          960.597
          765.62
          573.933
          387.127
          204.925
          25.4736
          26.7719
          257.854
          489.991
          723.661
          958.574
          958.586
          958.594
          958.596
          958.081
          958.506
          959.883
          959.883
          959.883
          959.883
          959.127
          959.334
          960.504
          960.504
          960.504
          960.504
          959.742
          959.927
          961.044
          961.042
          961.036
          961.026
          769.586
          579.964
          392.976
          208.505
          25.5664
          26.8004
          258.917
          491.554
          724.976
          959.108
          959.12
          959.128
          959.13
          958.984
          959.411
          960.425
          960.425
          960.425
          960.425
          960.034
          960.239
          961.042
          961.042
          961.042
          961.042
          960.639
          960.816
          961.558
          961.556
          961.55
          961.54
          771.87
          583.284
          396.179
          210.472
          25.6174
          26.8154
          259.485
          492.439
          725.847
          959.729
          959.741
          959.748
          959.751
          959.728
          960.159
          961.056
          961.056
          961.056
          961.056
          960.783
          960.987
          961.668
          961.668
          961.668
          961.668
          961.375
          961.543
          962.155
          962.153
          962.147
          962.137
          773.329
          585.225
          398.001
          211.581
          25.6461
          26.8248
          259.849
          493.051
          726.56
          960.435
          960.447
          960.455
          960.457
          960.482
          960.917
          961.775
          961.775
          961.775
          961.775
          961.543
          961.746
          962.38
          962.38
          962.38
          962.38
          962.12
          962.277
          962.834
          962.832
          962.826
          962.816
          774.393
          586.474
          399.116
          212.246
          25.6632
          26.832
          260.135
          493.568
          727.239
          961.226
          961.238
          961.245
          961.248
          961.297
          961.737
          962.579
          962.579
          962.579
          962.579
          962.366
          962.566
          963.178
          963.178
          963.178
          963.178
          962.926
          963.069
          963.594
          963.592
          963.586
          963.576
          775.288
          587.392
          399.883
          212.689
          25.6745
          26.8386
          260.4
          494.069
          727.94
          962.098
          962.111
          962.118
          962.12
          962.189
          962.633
          963.467
          963.467
          963.467
          963.467
          963.265
          963.463
          964.058
          964.058
          964.058
          964.058
          963.806
          963.935
          964.432
          964.43
          964.424
          964.415
          776.13
          588.17
          400.493
          213.03
          25.6832
          26.8452
          260.671
          494.588
          728.686
          963.051
          963.064
          963.071
          963.073
          963.159
          963.61
          964.436
          964.437
          964.437
          964.437
          964.245
          964.44
          965.02
          965.02
          965.02
          965.02
          964.764
          964.878
          965.347
          965.345
          965.339
          965.33
          776.988
          588.919
          401.059
          213.34
          25.6909
          26.8524
          260.961
          495.146
          729.491
          964.082
          964.094
          964.102
          964.104
          964.208
          964.665
          965.485
          965.485
          965.485
          965.485
          965.303
          965.495
          966.06
          966.06
          966.06
          966.06
          965.799
          965.896
          966.337
          966.335
          966.329
          966.319
          777.907
          589.717
          401.659
          213.666
          25.6991
          26.8601
          261.283
          495.762
          730.366
          965.189
          965.201
          965.208
          965.211
          965.334
          965.798
          966.611
          966.611
          966.611
          966.611
          966.439
          966.628
          967.176
          967.176
          967.176
          967.176
          966.91
          966.989
          967.399
          967.397
          967.391
          967.381
          778.936
          590.641
          402.371
          214.06
          25.7088
          26.8706
          261.662
          496.466
          731.333
          966.369
          966.381
          966.388
          966.391
          966.535
          967.005
          967.811
          967.811
          967.811
          967.811
          967.65
          967.835
          968.366
          968.366
          968.366
          968.366
          968.094
          968.153
          968.53
          968.528
          968.522
          968.513
          780.142
          591.804
          403.308
          214.592
          25.7233
          26.8786
          262.147
          497.327
          732.438
          967.619
          967.631
          967.638
          967.641
          967.806
          968.283
          969.082
          969.082
          969.082
          969.082
          968.933
          969.114
          969.626
          969.626
          969.626
          969.626
          969.348
          969.387
          969.729
          969.727
          969.721
          969.711
          781.646
          593.404
          404.672
          215.389
          25.7394
          26.9138
          262.842
          498.501
          733.789
          968.936
          968.948
          968.956
          968.958
          969.147
          969.631
          970.421
          970.421
          970.421
          970.421
          970.284
          970.461
          970.953
          970.953
          970.953
          970.953
          970.67
          970.686
          970.992
          970.99
          970.984
          970.974
          783.674
          595.808
          406.834
          216.677
          25.7899
          26.8761
          264.033
          500.334
          735.636
          970.318
          970.33
          970.338
          970.34
          970.552
          971.044
          971.824
          971.824
          971.824
          971.824
          971.7
          971.874
          972.344
          972.344
          972.344
          972.344
          972.055
          972.049
          972.315
          972.314
          972.308
          972.298
          786.648
          599.715
          410.495
          218.935
          25.7793
          27.2099
          266.175
          503.667
          738.534
          971.761
          971.773
          971.781
          971.783
          972.021
          972.52
          973.289
          973.289
          973.289
          973.289
          973.18
          973.349
          973.796
          973.796
          973.796
          973.796
          973.502
          973.473
          973.697
          973.695
          973.69
          973.68
          791.371
          606.436
          417.046
          222.905
          26.1597
          26.233
          271.094
          510.199
          743.807
          973.261
          973.273
          973.282
          973.284
          973.552
          974.058
          974.811
          974.812
          974.812
          974.812
          974.721
          974.886
          975.306
          975.306
          975.306
          975.306
          975.009
          974.955
          975.134
          975.132
          975.126
          975.117
          799.302
          618.499
          428.971
          230.79
          25.2555
          30.9205
          279.885
          524.692
          754.187
          974.814
          974.827
          974.837
          974.841
          975.148
          975.66
          976.387
          976.388
          976.389
          976.39
          976.326
          976.485
          976.868
          976.868
          976.868
          976.868
          976.578
          976.5
          976.622
          976.62
          976.613
          976.604
          813.053
          640.339
          451.992
          244.112
          30.0614
          13.843
          307.864
          554.446
          776.476
          976.413
          976.428
          976.446
          976.454
          976.828
          977.342
          978.011
          978.013
          978.017
          978.019
          978.01
          978.164
          978.48
          978.48
          978.48
          978.48
          978.225
          978.123
          978.161
          978.156
          978.146
          978.136
          836.376
          680.684
          494.318
          278.559
          13.1173
          86.412
          343.079
          629.834
          819.95
          978.04
          978.068
          978.108
          978.13
          978.654
          979.16
          979.675
          979.681
          979.694
          979.701
          979.832
          979.976
          980.139
          980.138
          980.137
          980.137
          980.004
          979.882
          979.752
          979.74
          979.717
          979.701
          872.944
          750.131
          586.776
          322.267
          85.9926
          -194.136
          571.977
          774.595
          890.668
          979.66
          979.712
          979.848
          979.897
          980.833
          981.284
          981.364
          981.38
          981.425
          981.441
          981.976
          982.1
          981.84
          981.839
          981.835
          981.834
          982.089
          981.962
          981.408
          981.381
          981.308
          981.279
          923.464
          854.312
          752.601
          561.642
          -194.704
          976.239
          979.253
          980.789
          981.594
          981.375
          981.22
          981.481
          982.271
          983.782
          984.092
          983.34
          982.942
          983.03
          983.644
          984.838
          984.918
          983.922
          983.409
          983.402
          983.897
          984.858
          984.75
          983.543
          982.911
          982.77
          983.061
          983.591
          983.17
          982.221
          980.614
          977.576
          977.739
          979.764
          981.14
          981.908
          982.301
          982.551
          982.924
          983.515
          984.087
          984.389
          984.374
          984.301
          984.427
          984.785
          985.129
          985.206
          985.002
          984.771
          984.76
          984.968
          985.144
          985.038
          984.66
          984.254
          984.051
          984.001
          983.863
          983.43
          982.537
          981.103
          979.058
          979.76
          980.905
          981.884
          982.646
          983.18
          983.598
          984.007
          984.437
          984.827
          985.093
          985.232
          985.324
          985.462
          985.656
          985.827
          985.893
          985.852
          985.784
          985.772
          985.815
          985.829
          985.73
          985.516
          985.262
          985.037
          984.821
          984.515
          984
          983.21
          982.195
          981.037
          981.083
          981.386
          982.222
          982.953
          983.52
          983.974
          984.387
          984.782
          985.129
          985.388
          985.558
          985.686
          985.825
          985.982
          986.115
          986.179
          986.172
          986.14
          986.128
          986.135
          986.113
          986.015
          985.837
          985.617
          985.388
          985.133
          984.782
          984.253
          983.513
          982.655
          982.342
        </DataArray>
      </PointData>
      <CellData>
      </CellData>
      <Points>
        <DataArray type="Float32" NumberOfComponents="3" format="ascii">
          0.1 0.005 0.0
          0.0966667 0.005 0.0
          0.0933333 0.005 0.0
          0.09 0.005 0.0
          0.0866667 0.005 0.0
          0.0833333 0.005 0.0
          0.08 0.005 0.0
          0.0766667 0.005 0.0
          0.0733333 0.005 0.0
          0.07 0.005 0.0
          0.0666667 0.005 0.0
          0.0633333 0.005 0.0
          0.06 0.005 0.0
          0.0566667 0.005 0.0
          0.0533333 0.005 0.0
          0.05 0.005 0.0
          0.0466667 0.005 0.0
          0.0433333 0.005 0.0
          0.04 0.005 0.0
          0.0366667 0.005 0.0
          0.0333333 0.005 0.0
          0.03 0.005 0.0
          0.0266667 0.005 0.0
          0.0233333 0.005 0.0
          0.02 0.005 0.0
          0.0166667 0.005 0.0
          0.0133333 0.005 0.0
          0.01 0.005 0.0
          0.00666667 0.005 0.0
          0.00333333 0.005 0.0
          0 0.005 0.0
          0.1 0.00166667 0.0
          0.0966667 0.00166667 0.0
          0.0933333 0.00166667 0.0
          0.09 0.00166667 0.0
          0.0866667 0.00166667 0.0
          0.0833333 0.00166667 0.0
          0.08 0.00166667 0.0
          0.0766667 0.00166667 0.0
          0.0733333 0.00166667 0.0
          0.07 0.00166667 0.0
          0.0666667 0.00166667 0.0
          0.0633333 0.00166667 0.0
          0.06 0.00166667 0.0
          0.0566667 0.00166667 0.0
          0.0533333 0.00166667 0.0
          0.05 0.00166667 0.0
          0.0466667 0.00166667 0.0
          0.0433333 0.00166667 0.0
          0.04 0.00166667 0.0
          0.0366667 0.00166667 0.0
          0.0333333 0.00166667 0.0
          0.03 0.00166667 0.0
          0.0266667 0.00166667 0.0
          0.0233333 0.00166667 0.0
          0.02 0.00166667 0.0
          0.0166667 0.00166667 0.0
          0.0133333 0.00166667 0.0
          0.01 0.00166667 0.0
          0.00666667 0.00166667 0.0
          0.00333333 0.00166667 0.0
          0 0.00166667 0.0
          0.1 -0.00166667 0.0
          0.0966667 -0.00166667 0.0
          0.0933333 -0.00166667 0.0
          0.09 -0.00166667 0.0
          0.0866667 -0.00166667 0.0
          0.0833333 -0.00166667 0.0
          0.08 -0.00166667 0.0
          0.0766667 -0.00166667 0.0
          0.0733333 -0.00166667 0.0
          0.07 -0.00166667 0.0
          0.0666667 -0.00166667 0.0
          0.0633333 -0.00166667 0.0
          0.06 -0.00166667 0.0
          0.0566667 -0.00166667 0.0
          0.0533333 -0.00166667 0.0
          0.05 -0.00166667 0.0
          0.0466667 -0.00166667 0.0
          0.0433333 -0.00166667 0.0
          0.04 -0.00166667 0.0
          0.0366667 -0.00166667 0.0
          0.0333333 -0.00166667 0.0
          0.03 -0.00166667 0.0
          0.0266667 -0.00166667 0.0
          0.0233333 -0.00166667 0.0
          0.02 -0.00166667 0.0
          0.0166667 -0.00166667 0.0
          0.0133333 -0.00166667 0.0
          0.01 -0.00166667 0.0
          0.00666667 -0.00166667 0.0
          0.00333333 -0.00166667 0.0
          0 -0.00166667 0.0
          0.1 -0.005 0.0
          0.0966667 -0.005 0.0
          0.0933333 -0.005 0.0
          0.09 -0.005 0.0
          0.0866667 -0.005 0.0
          0.0833333 -0.005 0.0
          0.08 -0.005 0.0
          0.0766667 -0.005 0.0
          0.0733333 -0.005 0.0
          0.07 -0.005 0.0
          0.0666667 -0.005 0.0
          0.0633333 -0.005 0.0
          0.06 -0.005 0.0
          0.0566667 -0.005 0.0
          0.0533333 -0.005 0.0
          0.05 -0.005 0.0
          0.0466667 -0.005 0.0
          0.0433333 -0.005 0.0
          0.04 -0.005 0.0
          0.0366667 -0.005 0.0
          0.0333333 -0.005 0.0
          0.03 -0.005 0.0
          0.0266667 -0.005 0.0
          0.0233333 -0.005 0.0
          0.02 -0.005 0.0
          0.0166667 -0.005 0.0
          0.0133333 -0.005 0.0
          0.01 -0.005 0.0
          0.00666667 -0.005 0.0
          0.00333333 -0.005 0.0
          0 -0.005 0.0
          0.1 -0.00833333 0.0
          0.0966667 -0.00833333 0.0
          0.0933333 -0.00833333 0.0
          0.09 -0.00833333 0.0
          0.0866667 -0.00833333 0.0
          0.0833333 -0.00833333 0.0
          0.08 -0.00833333 0.0
          0.0766667 -0.00833333 0.0
          0.0733333 -0.00833333 0.0
          0.07 -0.00833333 0.0
          0.0666667 -0.00833333 0.0
          0.0633333 -0.00833333 0.0
          0.06 -0.00833333 0.0
          0.0566667 -0.00833333 0.0
          0.0533333 -0.00833333 0.0
          0.05 -0.00833333 0.0
          0.0466667 -0.00833333 0.0
          0.0433333 -0.00833333 0.0
          0.04 -0.00833333 0.0
          0.0366667 -0.00833333 0.0
          0.0333333 -0.00833333 0.0
          0.03 -0.00833333 0.0
          0.0266667 -0.00833333 0.0
          0.0233333 -0.00833333 0.0
          0.02 -0.00833333 0.0
          0.0166667 -0.00833333 0.0
          0.0133333 -0.00833333 0.0
          0.01 -0.00833333 0.0
          0.00666667 -0.00833333 0.0
          0.00333333 -0.00833333 0.0
          0 -0.00833333 0.0
          0.1 -0.0116667 0.0
          0.0966667 -0.0116667 0.0
          0.0933333 -0.0116667 0.0
          0.09 -0.0116667 0.0
          0.0866667 -0.0116667 0.0
          0.0833333 -0.0116667 0.0
          0.08 -0.0116667 0.0
          0.0766667 -0.0116667 0.0
          0.0733333 -0.0116667 0.0
          0.07 -0.0116667 0.0
          0.0666667 -0.0116667 0.0
          0.0633333 -0.0116667 0.0
          0.06 -0.0116667 0.0
          0.0566667 -0.0116667 0.0
          0.0533333 -0.0116667 0.0
          0.05 -0.0116667 0.0
          0.0466667 -0.0116667 0.0
          0.0433333 -0.0116667 0.0
          0.04 -0.0116667 0.0
          0.0366667 -0.0116667 0.0
          0.0333333 -0.0116667 0.0
          0.03 -0.0116667 0.0
          0.0266667 -0.0116667 0.0
          0.0233333 -0.0116667 0.0
          0.02 -0.0116667 0.0
          0.0166667 -0.0116667 0.0
          0.0133333 -0.0116667 0.0
          0.01 -0.0116667 0.0
          0.00666667 -0.0116667 0.0
          0.00333333 -0.0116667 0.0
          0 -0.0116667 0.0
          0.1 -0.015 0.0
          0.0966667 -0.015 0.0
          0.0933333 -0.015 0.0
          0.09 -0.015 0.0
          0.0866667 -0.015 0.0
          0.0833333 -0.015 0.0
          0.08 -0.015 0.0
          0.0766667 -0.015 0.0
          0.0733333 -0.015 0.0
          0.07 -0.015 0.0
          0.0666667 -0.015 0.0
          0.0633333 -0.015 0.0
          0.06 -0.015 0.0
          0.0566667 -0.015 0.0
          0.0533333 -0.015 0.0
          0.05 -0.015 0.0
          0.0466667 -0.015 0.0
          0.0433333 -0.015 0.0
          0.04 -0.015 0.0
          0.0366667 -0.015 0.0
          0.0333333 -0.015 0.0
          0.03 -0.015 0.0
          0.0266667 -0.015 0.0
          0.0233333 -0.015 0.0
          0.02 -0.015 0.0
          0.0166667 -0.015 0.0
          0.0133333 -0.015 0.0
          0.01 -0.015 0.0
          0.00666667 -0.015 0.0
          0.00333333 -0.015 0.0
          0 -0.015 0.0
          0.1 -0.0183333 0.0
          0.0966667 -0.0183333 0.0
          0.0933333 -0.0183333 0.0
          0.09 -0.0183333 0.0
          0.0866667 -0.0183333 0.0
          0.0833333 -0.0183333 0.0
          0.08 -0.0183333 0.0
          0.0766667 -0.0183333 0.0
          0.0733333 -0.0183333 0.0
          0.07 -0.0183333 0.0
          0.0666667 -0.0183333 0.0
          0.0633333 -0.0183333 0.0
          0.06 -0.0183333 0.0
          0.0566667 -0.0183333 0.0
          0.0533333 -0.0183333 0.0
          0.05 -0.0183333 0.0
          0.0466667 -0.0183333 0.0
          0.0433333 -0.0183333 0.0
          0.04 -0.0183333 0.0
          0.0366667 -0.0183333 0.0
          0.0333333 -0.0183333 0.0
          0.03 -0.0183333 0.0
          0.0266667 -0.0183333 0.0
          0.0233333 -0.0183333 0.0
          0.02 -0.0183333 0.0
          0.0166667 -0.0183333 0.0
          0.0133333 -0.0183333 0.0
          0.01 -0.0183333 0.0
          0.00666667 -0.0183333 0.0
          0.00333333 -0.0183333 0.0
          0 -0.0183333 0.0
          0.1 -0.0216667 0.0
          0.0966667 -0.0216667 0.0
          0.0933333 -0.0216667 0.0
          0.09 -0.0216667 0.0
          0.0866667 -0.0216667 0.0
          0.0833333 -0.0216667 0.0
          0.08 -0.0216667 0.0
          0.0766667 -0.0216667 0.0
          0.0733333 -0.0216667 0.0
          0.07 -0.0216667 0.0
          0.0666667 -0.0216667 0.0
          0.0633333 -0.0216667 0.0
          0.06 -0.0216667 0.0
          0.0566667 -0.0216667 0.0
          0.0533333 -0.0216667 0.0
          0.05 -0.0216667 0.0
          0.0466667 -0.0216667 0.0
          0.0433333 -0.0216667 0.0
          0.04 -0.0216667 0.0
          0.0366667 -0.0216667 0.0
          0.0333333 -0.0216667 0.0
          0.03 -0.0216667 0.0
          0.0266667 -0.0216667 0.0
          0.0233333 -0.0216667 0.0
          0.02 -0.0216667 0.0
          0.0166667 -0.0216667 0.0
          0.0133333 -0.0216667 0.0
          0.01 -0.0216667 0.0
          0.00666667 -0.0216667 0.0
          0.00333333 -0.0216667 0.0
          0 -0.0216667 0.0
          0.1 -0.025 0.0
          0.0966667 -0.025 0.0
          0.0933333 -0.025 0.0
          0.09 -0.025 0.0
          0.0866667 -0.025 0.0
          0.0833333 -0.025 0.0
          0.08 -0.025 0.0
          0.0766667 -0.025 0.0
          0.0733333 -0.025 0.0
          0.07 -0.025 0.0
          0.0666667 -0.025 0.0
          0.0633333 -0.025 0.0
          0.06 -0.025 0.0
          0.0566667 -0.025 0.0
          0.0533333 -0.025 0.0
          0.05 -0.025 0.0
          0.0466667 -0.025 0.0
          0.0433333 -0.025 0.0
          0.04 -0.025 0.0
          0.0366667 -0.025 0.0
          0.0333333 -0.025 0.0
          0.03 -0.025 0.0
          0.0266667 -0.025 0.0
          0.0233333 -0.025 0.0
          0.02 -0.025 0.0
          0.0166667 -0.025 0.0
          0.0133333 -0.025 0.0
          0.01 -0.025 0.0
          0.00666667 -0.025 0.0
          0.00333333 -0.025 0.0
          0 -0.025 0.0
          0.1 -0.0283333 0.0
          0.0966667 -0.0283333 0.0
          0.0933333 -0.0283333 0.0
          0.09 -0.0283333 0.0
          0.0866667 -0.0283333 0.0
          0.0833333 -0.0283333 0.0
          0.08 -0.0283333 0.0
          0.0766667 -0.0283333 0.0
          0.0733333 -0.0283333 0.0
          0.07 -0.0283333 0.0
          0.0666667 -0.0283333 0.0
          0.0633333 -0.0283333 0.0
          0.06 -0.0283333 0.0
          0.0566667 -0.0283333 0.0
          0.0533333 -0.0283333 0.0
          0.05 -0.0283333 0.0
          0.0466667 -0.0283333 0.0
          0.0433333 -0.0283333 0.0
          0.04 -0.0283333 0.0
          0.0366667 -0.0283333 0.0
          0.0333333 -0.0283333 0.0
          0.03 -0.0283333 0.0
          0.0266667 -0.0283333 0.0
          0.0233333 -0.0283333 0.0
          0.02 -0.0283333 0.0
          0.0166667 -0.0283333 0.0
          0.0133333 -0.0283333 0.0
          0.01 -0.0283333 0.0
          0.00666667 -0.0283333 0.0
          0.00333333 -0.0283333 0.0
          0 -0.0283333 0.0
          0.1 -0.0316667 0.0
          0.0966667 -0.0316667 0.0
          0.0933333 -0.0316667 0.0
          0.09 -0.0316667 0.0
          0.0866667 -0.0316667 0.0
          0.0833333 -0.0316667 0.0
          0.08 -0.0316667 0.0
          0.0766667 -0.0316667 0.0
          0.0733333 -0.0316667 0.0
          0.07 -0.0316667 0.0
          0.0666667 -0.0316667 0.0
          0.0633333 -0.0316667 0.0
          0.06 -0.0316667 0.0
          0.0566667 -0.0316667 0.0
          0.0533333 -0.0316667 0.0
          0.05 -0.0316667 0.0
          0.0466667 -0.0316667 0.0
          0.0433333 -0.0316667 0.0
          0.04 -0.0316667 0.0
          0.0366667 -0.0316667 0.0
          0.0333333 -0.0316667 0.0
          0.03 -0.0316667 0.0
          0.0266667 -0.0316667 0.0
          0.0233333 -0.0316667 0.0
          0.02 -0.0316667 0.0
          0.0166667 -0.0316667 0.0
          0.0133333 -0.0316667 0.0
          0.01 -0.0316667 0.0
          0.00666667 -0.0316667 0.0
          0.00333333 -0.0316667 0.0
          0 -0.0316667 0.0
          0.1 -0.035 0.0
          0.0966667 -0.035 0.0
          0.0933333 -0.035 0.0
          0.09 -0.035 0.0
          0.0866667 -0.035 0.0
          0.0833333 -0.035 0.0
          0.08 -0.035 0.0
          0.0766667 -0.035 0.0
          0.0733333 -0.035 0.0
          0.07 -0.035 0.0
          0.0666667 -0.035 0.0
          0.0633333 -0.035 0.0
          0.06 -0.035 0.0
          0.0566667 -0.035 0.0
          0.0533333 -0.035 0.0
          0.05 -0.035 0.0
          0.0466667 -0.035 0.0