<?xml version="1.0"?>
<VTKFile type="UnstructuredGrid" version="0.1" byte_order="LittleEndian">
  <UnstructuredGrid>
    <Piece NumberOfPoints="961" NumberOfCells="900">
      <PointData Scalars="Temperature">
        <DataArray type="Float32" Name="Temperature" format="ascii">
          21.0003
          21.0129
          21.0261
          21.0396
          21.0511
          21.0593
          21.0638
          21.067
          21.0716
          21.0788
          21.0868
          21.0927
          21.0947
          21.0937
          21.0927
          21.0938
          21.0968
          21.0991
          21.0977
          21.092
          21.0842
          21.0773
          21.0732
          21.0702
          21.0659
          21.0577
          21.0461
          21.033
          21.0208
          21.01
          21.0002
          21.0124
          21.5186
          22.0718
          22.6388
          23.1423
          23.4734
          23.6425
          23.7424
          23.9248
          24.2315
          24.5933
          24.8519
          24.9268
          24.8575
          24.7905
          24.8388
          24.9907
          25.1121
          25.0604
          24.8082
          24.4528
          24.1595
          23.9953
          23.9094
          23.745
          23.4113
          22.9074
          22.3545
          21.8395
          21.4041
          21.0097
          21.0236
          21.9884
          23.0587
          24.3843
          25.4787
          26.1972
          26.3644
          26.3955
          26.6359
          27.4064
          28.2978
          28.9619
          29.036
          28.7033
          28.3945
          28.5168
          29.0042
          29.4428
          29.3916
          28.7241
          27.8348
          27.0974
          26.9045
          26.9115
          26.7489
          26.0135
          24.9078
          23.5969
          22.6
          21.7694
          21.0184
          21.0331
          22.3818
          23.8939
          25.772
          29.3042
          29.3047
          29.3048
          29.3047
          28.6915
          29.8337
          33.5145
          33.5149
          33.515
          33.5147
          31.1333
          31.3152
          34.1865
          34.1868
          34.1868
          34.1863
          30.4188
          29.3254
          30.157
          30.1571
          30.157
          30.1566
          26.4954
          24.6489
          23.2435
          22.0817
          21.0259
          21.0401
          22.6715
          24.4658
          26.6794
          29.3245
          29.3246
          29.3248
          29.3248
          29.9205
          31.3204
          33.5395
          33.5396
          33.5397
          33.5397
          32.7847
          33.008
          34.2124
          34.2125
          34.2124
          34.2123
          31.9988
          30.6586
          30.1786
          30.1785
          30.1784
          30.1782
          27.5386
          25.3867
          23.7326
          22.3257
          21.0319
          21.0448
          22.8572
          24.8005
          26.969
          29.384
          29.3842
          29.3843
          29.3844
          30.3982
          31.8028
          33.6132
          33.6133
          33.6134
          33.6133
          33.3699
          33.5941
          34.2888
          34.2888
          34.2887
          34.2886
          32.5147
          31.1703
          30.2423
          30.2422
          30.2421
          30.242
          27.8981
          25.8401
          24.0669
          22.5015
          21.0362
          21.0476
          22.9694
          24.9782
          27.1386
          29.4831
          29.4832
          29.4834
          29.4834
          30.6328
          32.0453
          33.7357
          33.7358
          33.7358
          33.7358
          33.652
          33.8777
          34.4156
          34.4156
          34.4156
          34.4155
          32.7719
          31.4206
          30.3484
          30.3483
          30.3482
          30.348
          28.1165
          26.1011
          24.2862
          22.6226
          21.0392
          21.0496
          23.0433
          25.1026
          27.2818
          29.6218
          29.6219
          29.6221
          29.6221
          30.8216
          32.245
          33.907
          33.907
          33.9071
          33.9071
          33.8743
          34.102
          34.593
          34.593
          34.593
          34.5929
          32.9819
          31.6209
          30.4968
          30.4967
          30.4966
          30.4965
          28.2978
          26.2877
          24.4388
          22.7084
          21.0414
          21.0511
          23.1052
          25.2153
          27.432
          29.8003
          29.8004
          29.8005
          29.8006
          31.0257
          32.463
          34.1271
          34.1272
          34.1272
          34.1272
          34.1121
          34.3424
          34.821
          34.821
          34.821
          34.8209
          33.2104
          31.8369
          30.6877
          30.6877
          30.6876
          30.6874
          28.4809
          26.4509
          24.5632
          22.7766
          21.0431
          21.0526
          23.1675
          25.3344
          27.6024
          30.0186
          30.0188
          30.0189
          30.019
          31.2641
          32.7184
          34.3961
          34.3961
          34.3962
          34.3962
          34.3888
          34.6224
          35.0996
          35.0996
          35.0995
          35.0994
          33.4776
          32.089
          30.9213
          30.9213
          30.9211
          30.921
          28.6825
          26.6151
          24.6809
          22.8389
          21.0446
          21.0543
          23.2357
          25.4676
          27.7987
          30.2771
          30.2772
          30.2774
          30.2774
          31.5428
          33.017
          34.714
          34.714
          34.7141
          34.7141
          34.7117
          34.9491
          35.4287
          35.4287
          35.4287
          35.4286
          33.7899
          32.3837
          31.1978
          31.1977
          31.1976
          31.1974
          28.9106
          26.7926
          24.8036
          22.9024
          21.0462
          21.0562
          23.3123
          25.6185
          28.0235
          30.5759
          30.5761
          30.5762
          30.5763
          31.8638
          33.3608
          35.0808
          35.0809
          35.081
          35.081
          35.0832
          35.3248
          35.8084
          35.8085
          35.8084
          35.8083
          34.1493
          32.7229
          31.5172
          31.5171
          31.517
          31.5169
          29.1691
          26.9895
          24.9372
          22.9707
          21.0479
          21.0583
          23.3984
          25.7886
          28.2779
          30.9154
          30.9155
          30.9156
          30.9157
          32.2279
          33.7505
          35.4967
          35.4967
          35.4968
          35.4968
          35.5038
          35.7503
          36.2388
          36.2388
          36.2388
          36.2387
          34.5566
          33.1075
          31.88
          31.8799
          31.8798
          31.8796
          29.4602
          27.2093
          25.085
          23.0458
          21.0497
          21.0606
          23.4945
          25.9787
          28.5626
          31.2957
          31.2959
          31.296
          31.2961
          32.6355
          34.1864
          35.9616
          35.9617
          35.9617
          35.9617
          35.9739
          36.2258
          36.7199
          36.7199
          36.7198
          36.7197
          35.0121
          33.5379
          32.2862
          32.2862
          32.286
          32.2859
          29.7852
          27.4537
          25.2489
          23.1289
          21.0517
          21.0632
          23.6009
          26.1893
          28.8781
          31.7173
          31.7174
          31.7176
          31.7177
          33.0868
          34.6687
          36.4756
          36.4757
          36.4757
          36.4757
          36.4937
          36.7515
          37.2516
          37.2516
          37.2515
          37.2514
          35.5159
          34.0144
          32.7363
          32.7363
          32.7361
          32.736
          30.1451
          27.724
          25.43
          23.2206
          21.054
          21.0661
          23.7179
          26.4208
          29.2248
          32.1804
          32.1806
          32.1807
          32.1808
          33.5822
          35.1976
          37.0387
          37.0388
          37.0389
          37.0389
          37.0631
          37.3273
          37.8339
          37.8339
          37.8339
          37.8338
          36.0681
          34.5371
          33.2306
          33.2305
          33.2303
          33.2302
          30.5406
          28.0215
          25.6294
          23.3217
          21.0564
          21.0692
          23.8458
          26.6736
          29.6032
          32.6855
          32.6857
          32.6858
          32.6859
          34.1219
          35.7732
          37.6511
          37.6512
          37.6512
          37.6512
          37.6822
          37.9533
          38.467
          38.467
          38.4669
          38.4668
          36.669
          35.1063
          33.7692
          33.7691
          33.769
          33.7688
          30.9727
          28.3475
          25.8485
          23.433
          21.0592
          21.0726
          23.9851
          26.9487
          30.014
          33.2329
          33.2331
          33.2332
          33.2333
          34.7061
          36.3957
          38.3127
          38.3128
          38.3128
          38.3129
          38.3511
          38.6297
          39.1507
          39.1507
          39.1507
          39.1506
          37.3185
          35.7222
          34.3527
          34.3526
          34.3524
          34.3523
          31.4432
          28.7043
          26.0897
          23.5559
          21.0622
          21.0762
          24.1369
          27.2474
          30.4584
          33.823
          33.8232
          33.8234
          33.8235
          35.3353
          37.0653
          39.0235
          39.0236
          39.0237
          39.0238
          39.0699
          39.3563
          39.8851
          39.8851
          39.8851
          39.8849
          38.0169
          36.3851
          34.9813
          34.9812
          34.981
          34.9808
          31.9545
          29.0961
          26.3568
          23.6929
          21.0655
          21.0806
          24.3031
          27.5728
          30.9388
          34.4562
          34.4565
          34.4567
          34.4568
          36.0097
          37.7822
          39.7836
          39.7838
          39.784
          39.784
          39.8388
          40.1335
          40.6702
          40.6702
          40.6701
          40.67
          38.7643
          37.0953
          35.6554
          35.6553
          35.6551
          35.6548
          32.5117
          29.5306
          26.6578
          23.8489
          21.0697
          21.0838
          24.4895
          27.9319
          31.4602
          35.133
          35.1333
          35.1336
          35.1338
          36.7296
          38.5464
          40.593
          40.5932
          40.5936
          40.5937
          40.6585
          40.9619
          41.506
          41.5059
          41.5057
          41.5055
          39.5609
          37.8533
          36.3755
          36.3753
          36.3749
          36.3746
          33.1236
          30.0223
          27.0071
          24.0336
          21.0727
          21.0948
          24.7048
          28.341
          32.0335
          35.8534
          35.8539
          35.8547
          35.8551
          37.4957
          39.3582
          41.4513
          41.4518
          41.4528
          41.4532
          41.5305
          41.843
          42.3926
          42.3923
          42.3917
          42.3913
          40.4071
          38.6597
          37.1421
          37.1417
          37.1408
          37.1403
          33.8072
          30.5986
          27.434
          24.2627
          21.0845
          21.0793
          24.9852
          28.8332
          32.6844
          36.6174
          36.6186
          36.6206
          36.6217
          38.309
          40.2178
          42.3576
          42.3591
          42.362
          42.3634
          42.4598
          42.7815
          43.3306
          43.3297
          43.3278
          43.3268
          41.3042
          39.5165
          37.9563
          37.9551
          37.9529
          37.9516
          34.5927
          31.3131
          27.9912
          24.5832
          21.0685
          21.1793
          25.3518
          29.5035
          33.466
          37.4234
          37.4267
          37.4329
          37.4361
          39.1728
          41.1259
          43.3091
          43.3137
          43.3226
          43.3271
          43.4596
          43.7902
          44.3219
          44.3189
          44.313
          44.3098
          42.2553
          40.4292
          38.8206
          38.8171
          38.8103
          38.8068
          35.5349
          32.2606
          28.8022
          25.0281
          21.1764
          20.8362
          26.1164
          30.4984
          34.5119
          38.2658
          38.2755
          38.2952
          38.3047
          40.0983
          42.0855
          44.2969
          44.3108
          44.3393
          44.3532
          44.5668
          44.9044
          45.3724
          45.3631
          45.3438
          45.3344
          43.2704
          41.4146
          39.742
          39.7315
          39.7099
          39.6994
          36.7115
          33.6311
          30.0472
          25.9386
          20.8133
          22.3194
          27.0396
          32.4416
          36.0068
          39.1238
          39.1568
          39.2164
          39.2493
          41.1216
          43.1116
          45.2899
          45.3378
          45.4248
          45.4726
          45.8786
          46.2173
          46.5028
          46.4705
          46.4119
          46.3796
          44.3816
          42.5228
          40.7443
          40.7082
          40.6426
          40.6064
          38.1997
          35.6655
          32.4054
          27.063
          22.3965
          16.6104
          31.9329
          35.8512
          38.0894
          39.948
          40.0259
          40.2422
          40.3202
          42.3975
          44.2325
          46.2146
          46.3294
          46.6439
          46.7587
          47.6563
          47.9669
          47.7624
          47.6852
          47.4729
          47.3957
          45.6611
          43.9391
          41.8827
          41.7969
          41.5592
          41.4734
          40.0291
          38.5295
          36.4129
          32.4529
          16.3201
          40.4576
          40.5436
          40.6434
          40.7536
          40.6871
          40.7739
          41.1986
          42.1366
          44.212
          45.6276
          46.7302
          47.2551
          47.8863
          48.8343
          50.3792
          50.6086
          49.6003
          48.9168
          48.4937
          48.1795
          47.3619
          45.9935
          43.8209
          42.8152
          42.347
          42.2287
          42.2439
          42.0817
          41.9339
          41.8177
          41.7243
          40.4856
          40.5531
          40.6579
          40.7856
          40.9767
          41.3156
          41.9376
          42.9776
          44.304
          45.7563
          47.0519
          48.1771
          49.1543
          50.0845
          50.7787
          51.0068
          50.7338
          50.1859
          49.5497
          48.7134
          47.5801
          46.1421
          44.7345
          43.6081
          42.9182
          42.5218
          42.2767
          42.0951
          41.9399
          41.825
          41.7524
          40.52
          40.5732
          40.6844
          40.8669
          41.156
          41.6158
          42.3203
          43.3039
          44.5502
          46.0115
          47.7081
          49.2948
          50.4829
          51.3662
          51.942
          52.1559
          52.0043
          51.5407
          50.797
          49.7192
          48.1748
          46.5046
          45.1138
          44.0245
          43.2373
          42.7093
          42.3596
          42.1199
          41.9515
          41.8404
          41.7857
          40.5445
          40.5822
          40.6986
          40.8988
          41.2183
          41.7116
          42.4324
          43.4101
          44.6422
          46.1401
          48.084
          49.9405
          51.1981
          52.0865
          52.6423
          52.8549
          52.7246
          52.2719
          51.4988
          50.3365
          48.5434
          46.6531
          45.2425
          44.1484
          43.3399
          42.7748
          42.3924
          42.1332
          41.9572
          41.8471
          41.8101
        </DataArray>
      </PointData>
      <CellData>
      </CellData>
      <Points>
        <DataArray type="Float32" NumberOfComponents="3" format="ascii">
          0.1 0.005 0.0
          0.0966667 0.005 0.0
          0.0933333 0.005 0.0
          0.09 0.005 0.0
          0.0866667 0.005 0.0
          0.0833333 0.005 0.0
          0.08 0.005 0.0
          0.0766667 0.005 0.0
          0.0733333 0.005 0.0
          0.07 0.005 0.0
          0.0666667 0.005 0.0
          0.0633333 0.005 0.0
          0.06 0.005 0.0
          0.0566667 0.005 0.0
          0.0533333 0.005 0.0
          0.05 0.005 0.0
          0.0466667 0.005 0.0
          0.0433333 0.005 0.0
          0.04 0.005 0.0
          0.0366667 0.005 0.0
          0.0333333 0.005 0.0
          0.03 0.005 0.0
          0.0266667 0.005 0.0
          0.0233333 0.005 0.0
          0.02 0.005 0.0
          0.0166667 0.005 0.0
          0.0133333 0.005 0.0
          0.01 0.005 0.0
          0.00666667 0.005 0.0
          0.00333333 0.005 0.0
          0 0.005 0.0
          0.1 0.00166667 0.0
          0.0966667 0.00166667 0.0
          0.0933333 0.00166667 0.0
          0.09 0.00166667 0.0
          0.0866667 0.00166667 0.0
          0.0833333 0.00166667 0.0
          0.08 0.00166667 0.0
          0.0766667 0.00166667 0.0
          0.0733333 0.00166667 0.0
          0.07 0.00166667 0.0
          0.0666667 0.00166667 0.0
          0.0633333 0.00166667 0.0
          0.06 0.00166667 0.0
          0.0566667 0.00166667 0.0
          0.0533333 0.00166667 0.0
          0.05 0.00166667 0.0
          0.0466667 0.00166667 0.0
          0.0433333 0.00166667 0.0
          0.04 0.00166667 0.0
          0.0366667 0.00166667 0.0
          0.0333333 0.00166667 0.0
          0.03 0.00166667 0.0
          0.0266667 0.00166667 0.0
          0.0233333 0.00166667 0.0
          0.02 0.00166667 0.0
          0.0166667 0.00166667 0.0
          0.0133333 0.00166667 0.0
          0.01 0.00166667 0.0
          0.00666667 0.00166667 0.0
          0.00333333 0.00166667 0.0
          0 0.00166667 0.0
          0.1 -0.00166667 0.0
          0.0966667 -0.00166667 0.0
          0.0933333 -0.00166667 0.0
          0.09 -0.00166667 0.0
          0.0866667 -0.00166667 0.0
          0.0833333 -0.00166667 0.0
          0.08 -0.00166667 0.0
          0.0766667 -0.00166667 0.0
          0.0733333 -0.00166667 0.0
          0.07 -0.00166667 0.0
          0.0666667 -0.00166667 0.0
          0.0633333 -0.00166667 0.0
          0.06 -0.00166667 0.0
          0.0566667 -0.00166667 0.0
          0.0533333 -0.00166667 0.0
          0.05 -0.00166667 0.0
          0.0466667 -0.00166667 0.0
          0.0433333 -0.00166667 0.0
          0.04 -0.00166667 0.0
          0.0366667 -0.00166667 0.0
          0.0333333 -0.00166667 0.0
          0.03 -0.00166667 0.0
          0.0266667 -0.00166667 0.0
          0.0233333 -0.00166667 0.0
          0.02 -0.00166667 0.0
          0.0166667 -0.00166667 0.0
          0.0133333 -0.00166667 0.0
          0.01 -0.00166667 0.0
          0.00666667 -0.00166667 0.0
          0.00333333 -0.00166667 0.0
          0 -0.00166667 0.0
          0.1 -0.005 0.0
          0.0966667 -0.005 0.0
          0.0933333 -0.005 0.0
          0.09 -0.005 0.0
          0.0866667 -0.005 0.0
          0.0833333 -0.005 0.0
          0.08 -0.005 0.0
          0.0766667 -0.005 0.0
          0.0733333 -0.005 0.0
          0.07 -0.005 0.0
          0.0666667 -0.005 0.0
          0.0633333 -0.005 0.0
          0.06 -0.005 0.0
          0.0566667 -0.005 0.0
          0.0533333 -0.005 0.0
          0.05 -0.005 0.0
          0.0466667 -0.005 0.0
          0.0433333 -0.005 0.0
          0.04 -0.005 0.0
          0.0366667 -0.005 0.0
          0.0333333 -0.005 0.0
          0.03 -0.005 0.0
          0.0266667 -0.005 0.0
          0.0233333 -0.005 0.0
          0.02 -0.005 0.0
          0.0166667 -0.005 0.0
          0.0133333 -0.005 0.0
          0.01 -0.005 0.0
          0.00666667 -0.005 0.0
          0.00333333 -0.005 0.0
          0 -0.005 0.0
          0.1 -0.00833333 0.0
          0.0966667 -0.00833333 0.0
          0.0933333 -0.00833333 0.0
          0.09 -0.00833333 0.0
          0.0866667 -0.00833333 0.0
          0.0833333 -0.00833333 0.0
          0.08 -0.00833333 0.0
          0.0766667 -0.00833333 0.0
          0.0733333 -0.00833333 0.0
          0.07 -0.00833333 0.0
          0.0666667 -0.00833333 0.0
          0.0633333 -0.00833333 0.0
          0.06 -0.00833333 0.0
          0.0566667 -0.00833333 0.0
          0.0533333 -0.00833333 0.0
          0.05 -0.00833333 0.0
          0.0466667 -0.00833333 0.0
          0.0433333 -0.00833333 0.0
          0.04 -0.00833333 0.0
          0.0366667 -0.00833333 0.0
          0.0333333 -0.00833333 0.0
          0.03 -0.00833333 0.0
          0.0266667 -0.00833333 0.0
          0.0233333 -0.00833333 0.0
          0.02 -0.00833333 0.0
          0.0166667 -0.00833333 0.0
          0.0133333 -0.00833333 0.0
          0.01 -0.00833333 0.0
          0.00666667 -0.00833333 0.0
          0.00333333 -0.00833333 0.0
          0 -0.00833333 0.0
          0.1 -0.0116667 0.0
          0.0966667 -0.0116667 0.0
          0.0933333 -0.0116667 0.0
          0.09 -0.0116667 0.0
          0.0866667 -0.0116667 0.0
          0.0833333 -0.0116667 0.0
          0.08 -0.0116667 0.0
          0.0766667 -0.0116667 0.0
          0.0733333 -0.0116667 0.0
          0.07 -0.0116667 0.0
          0.0666667 -0.0116667 0.0
          0.0633333 -0.0116667 0.0
          0.06 -0.0116667 0.0
          0.0566667 -0.0116667 0.0
          0.0533333 -0.0116667 0.0
          0.05 -0.0116667 0.0
          0.0466667 -0.0116667 0.0
          0.0433333 -0.0116667 0.0
          0.04 -0.0116667 0.0
          0.0366667 -0.0116667 0.0
          0.0333333 -0.0116667 0.0
          0.03 -0.0116667 0.0
          0.0266667 -0.0116667 0.0
          0.0233333 -0.0116667 0.0
          0.02 -0.0116667 0.0
          0.0166667 -0.0116667 0.0
          0.0133333 -0.0116667 0.0
          0.01 -0.0116667 0.0
          0.00666667 -0.0116667 0.0
          0.00333333 -0.0116667 0.0
          0 -0.0116667 0.0
          0.1 -0.015 0.0
          0.0966667 -0.015 0.0
          0.0933333 -0.015 0.0
          0.09 -0.015 0.0
          0.0866667 -0.015 0.0
          0.0833333 -0.015 0.0
          0.08 -0.015 0.0
          0.0766667 -0.015 0.0
          0.0733333 -0.015 0.0
          0.07 -0.015 0.0
          0.0666667 -0.015 0.0
          0.0633333 -0.015 0.0
          0.06 -0.015 0.0
          0.0566667 -0.015 0.0
          0.0533333 -0.015 0.0
          0.05 -0.015 0.0
          0.0466667 -0.015 0.0
          0.0433333 -0.015 0.0
          0.04 -0.015 0.0
          0.0366667 -0.015 0.0
          0.0333333 -0.015 0.0
          0.03 -0.015 0.0
          0.0266667 -0.015 0.0
          0.0233333 -0.015 0.0
          0.02 -0.015 0.0
          0.0166667 -0.015 0.0
          0.0133333 -0.015 0.0
          0.01 -0.015 0.0
          0.00666667 -0.015 0.0
          0.00333333 -0.015 0.0
          0 -0.015 0.0
          0.1 -0.0183333 0.0
          0.0966667 -0.0183333 0.0
          0.0933333 -0.0183333 0.0
          0.09 -0.0183333 0.0
          0.0866667 -0.0183333 0.0
          0.0833333 -0.0183333 0.0
          0.08 -0.0183333 0.0
          0.0766667 -0.0183333 0.0
          0.0733333 -0.0183333 0.0
          0.07 -0.0183333 0.0
          0.0666667 -0.0183333 0.0
          0.0633333 -0.0183333 0.0
          0.06 -0.0183333 0.0
          0.0566667 -0.0183333 0.0
          0.0533333 -0.0183333 0.0
          0.05 -0.0183333 0.0
          0.0466667 -0.0183333 0.0
          0.0433333 -0.0183333 0.0
          0.04 -0.0183333 0.0
          0.0366667 -0.0183333 0.0
          0.0333333 -0.0183333 0.0
          0.03 -0.0183333 0.0
          0.0266667 -0.0183333 0.0
          0.0233333 -0.0183333 0.0
          0.02 -0.0183333 0.0
          0.0166667 -0.0183333 0.0
          0.0133333 -0.0183333 0.0
          0.01 -0.0183333 0.0
          0.00666667 -0.0183333 0.0
          0.00333333 -0.0183333 0.0
          0 -0.0183333 0.0
          0.1 -0.0216667 0.0
          0.0966667 -0.0216667 0.0
          0.0933333 -0.0216667 0.0
          0.09 -0.0216667 0.0
          0.0866667 -0.0216667 0.0
          0.0833333 -0.0216667 0.0
          0.08 -0.0216667 0.0
          0.0766667 -0.0216667 0.0
          0.0733333 -0.0216667 0.0
          0.07 -0.0216667 0.0
          0.0666667 -0.0216667 0.0
          0.0633333 -0.0216667 0.0
          0.06 -0.0216667 0.0
          0.0566667 -0.0216667 0.0
          0.0533333 -0.0216667 0.0
          0.05 -0.0216667 0.0
          0.0466667 -0.0216667 0.0
          0.0433333 -0.0216667 0.0
          0.04 -0.0216667 0.0
          0.0366667 -0.0216667 0.0
          0.0333333 -0.0216667 0.0
          0.03 -0.0216667 0.0
          0.0266667 -0.0216667 0.0
          0.0233333 -0.0216667 0.0
          0.02 -0.0216667 0.0
          0.0166667 -0.0216667 0.0
          0.0133333 -0.0216667 0.0
          0.01 -0.0216667 0.0
          0.00666667 -0.0216667 0.0
          0.00333333 -0.0216667 0.0
          0 -0.0216667 0.0
          0.1 -0.025 0.0
          0.0966667 -0.025 0.0
          0.0933333 -0.025 0.0
          0.09 -0.025 0.0
          0.0866667 -0.025 0.0
          0.0833333 -0.025 0.0
          0.08 -0.025 0.0
          0.0766667 -0.025 0.0
          0.0733333 -0.025 0.0
          0.07 -0.025 0.0
          0.0666667 -0.025 0.0
          0.0633333 -0.025 0.0
          0.06 -0.025 0.0
          0.0566667 -0.025 0.0
          0.0533333 -0.025 0.0
          0.05 -0.025 0.0
          0.0466667 -0.025 0.0
          0.0433333 -0.025 0.0
          0.04 -0.025 0.0
          0.0366667 -0.025 0.0
          0.0333333 -0.025 0.0
          0.03 -0.025 0.0
          0.0266667 -0.025 0.0
          0.0233333 -0.025 0.0
          0.02 -0.025 0.0
          0.0166667 -0.025 0.0
          0.0133333 -0.025 0.0
          0.01 -0.025 0.0
          0.00666667 -0.025 0.0
          0.00333333 -0.025 0.0
          0 -0.025 0.0
          0.1 -0.0283333 0.0
          0.0966667 -0.0283333 0.0
          0.0933333 -0.0283333 0.0
          0.09 -0.0283333 0.0
          0.0866667 -0.0283333 0.0
          0.0833333 -0.0283333 0.0
          0.08 -0.0283333 0.0
          0.0766667 -0.0283333 0.0
          0.0733333 -0.0283333 0.0
          0.07 -0.0283333 0.0
          0.0666667 -0.0283333 0.0
          0.0633333 -0.0283333 0.0
          0.06 -0.0283333 0.0
          0.0566667 -0.0283333 0.0
          0.0533333 -0.0283333 0.0
          0.05 -0.0283333 0.0
          0.0466667 -0.0283333 0.0
          0.0433333 -0.0283333 0.0
          0.04 -0.0283333 0.0
          0.0366667 -0.0283333 0.0
          0.0333333 -0.0283333 0.0
          0.03 -0.0283333 0.0
          0.0266667 -0.0283333 0.0
          0.0233333 -0.0283333 0.0
          0.02 -0.0283333 0.0
          0.0166667 -0.0283333 0.0
          0.0133333 -0.0283333 0.0
          0.01 -0.0283333 0.0
          0.00666667 -0.0283333 0.0
          0.00333333 -0.0283333 0.0
          0 -0.0283333 0.0
          0.1 -0.0316667 0.0
          0.0966667 -0.0316667 0.0
          0.0933333 -0.0316667 0.0
          0.09 -0.0316667 0.0
          0.0866667 -0.0316667 0.0
          0.0833333 -0.0316667 0.0
          0.08 -0.0316667 0.0
          0.0766667 -0.0316667 0.0
          0.0733333 -0.0316667 0.0
          0.07 -0.0316667 0.0
          0.0666667 -0.0316667 0.0
          0.0633333 -0.0316667 0.0
          0.06 -0.0316667 0.0
          0.0566667 -0.0316667 0.0
          0.0533333 -0.0316667 0.0
          0.05 -0.0316667 0.0
          0.0466667 -0.0316667 0.0
          0.0433333 -0.0316667 0.0
          0.04 -0.0316667 0.0
          0.0366667 -0.0316667 0.0
          0.0333333 -0.0316667 0.0
          0.03 -0.0316667 0.0
          0.0266667 -0.0316667 0.0
          0.0233333 -0.0316667 0.0
          0.02 -0.0316667 0.0
          0.0166667 -0.0316667 0.0
          0.0133333 -0.0316667 0.0
          0.01 -0.0316667 0.0
          0.00666667 -0.0316667 0.0
          0.00333333 -0.0316667 0.0
          0 -0.0316667 0.0
          0.1 -0.035 0.0
          0.0966667 -0.035 0.0
          0.0933333 -0.035 0.0
          0.09 -0.035 0.0
          0.0866667 -0.035 0.0
          0.0833333 -0.035 0.0
          0.08 -0.035 0.0
          0.0766667 -0.035 0.0
          0.0733333 -0.035 0.0
          0.07 -0.035 0.0
          0.0666667 -0.035 0.0
          0.0633333 -0.035 0.0
          0.06 -0.035 0.0
          0.0566667 -0.035 0.0
          0.0533333 -0.035 0.0
          0.05 -0.035 0.0