<?xml version="1.0"?>
<VTKFile type="UnstructuredGrid" version="0.1" byte_order="LittleEndian">
  <UnstructuredGrid>
    <Piece NumberOfPoints="961" NumberOfCells="900">
      <PointData Scalars="Temperature">
        <DataArray type="Float32" Name="Temperature" format="ascii">
          47.0862
          47.0862
          47.0862
          47.0862
          47.0862
          47.0862
          47.0862
          47.0862
          47.0862
          47.0862
          47.0862
          47.0862
          47.0862
          47.0862
          47.0862
          47.0862
          47.0862
          47.0862
          47.0862
          47.0862
          47.0862
          47.0862
          47.0862
          47.0862
          47.0862
          47.0862
          47.0862
          47.0862
          47.0862
          47.0862
          47.0862
          47.0862
          47.0862
          47.0862
          47.0862
          47.0862
          47.0862
          47.0862
          47.0862
          47.0862
          47.0862
          47.0862
          47.0862
          47.0862
          47.0862
          47.0862
          47.0862
          47.0862
          47.0862
          47.0862
          47.0862
          47.0862
          47.0862
          47.0862
          47.0862
          47.0862
          47.0862
          47.0862
          47.0862
          47.0862
          47.0862
          47.0862
          47.0862
          47.0862
          47.0862
          47.0862
          47.0862
          47.0862
          47.0862
          47.0862
          47.0862
          47.0862
          47.0862
          47.0862
          47.0862
          47.0862
          47.0862
          47.0862
          47.0862
          47.0862
          47.0862
          47.0862
          47.0862
          47.0862
          47.0862
          47.0862
          47.0862
          47.0862
          47.0862
          47.0862
          47.0862
          47.0862
          47.0862
          47.0862
          47.0862
          47.0862
          47.0862
          71.8739
          71.8761
          71.8766
          71.8755
          47.0862
          47.0862
          72.2265
          72.2277
          72.2278
          72.2265
          47.0862
          47.0862
          72.2642
          72.2655
          72.2655
          72.2642
          47.0862
          47.0862
          71.9562
          71.9573
          71.9569
          71.9548
          47.0862
          47.0862
          47.0862
          47.0862
          47.0862
          47.0862
          47.0862
          47.0862
          47.0862
          71.8771
          71.8779
          71.8784
          71.8783
          47.0862
          47.0862
          72.2291
          72.2293
          72.2293
          72.2291
          47.0862
          47.0862
          72.2668
          72.2671
          72.2671
          72.2668
          47.0862
          47.0862
          71.9589
          71.959
          71.9587
          71.9579
          47.0862
          47.0862
          47.0862
          47.0862
          47.0862
          47.0862
          47.0862
          47.0862
          47.0862
          71.8801
          71.8808
          71.8812
          71.8812
          47.0862
          47.0862
          72.2316
          72.2317
          72.2317
          72.2316
          47.0862
          47.0862
          72.2694
          72.2695
          72.2695
          72.2693
          47.0862
          47.0862
          71.9618
          71.9618
          71.9615
          71.9609
          47.0862
          47.0862
          47.0862
          47.0862
          47.0862
          47.0862
          47.0862
          47.0862
          47.0862
          71.8837
          71.8844
          71.8847
          71.8848
          47.0862
          47.0862
          72.2345
          72.2346
          72.2346
          72.2345
          47.0862
          47.0862
          72.2722
          72.2723
          72.2723
          72.2722
          47.0862
          47.0862
          71.9652
          71.9652
          71.9649
          71.9643
          47.0862
          47.0862
          47.0862
          47.0862
          47.0862
          47.0862
          47.0862
          47.0862
          47.0862
          71.8878
          71.8885
          71.8889
          71.8889
          47.0862
          47.0862
          72.2377
          72.2378
          72.2378
          72.2377
          47.0862
          47.0862
          72.2755
          72.2756
          72.2756
          72.2755
          47.0862
          47.0862
          71.9692
          71.9692
          71.9689
          71.9683
          47.0862
          47.0862
          47.0862
          47.0862
          47.0862
          47.0862
          47.0862
          47.0862
          47.0862
          71.8926
          71.8933
          71.8936
          71.8936
          47.0862
          47.0862
          72.2413
          72.2414
          72.2414
          72.2413
          47.0862
          47.0862
          72.2791
          72.2792
          72.2792
          72.2791
          47.0862
          47.0862
          71.9738
          71.9738
          71.9735
          71.9729
          47.0862
          47.0862
          47.0862
          47.0862
          47.0862
          47.0862
          47.0862
          47.0862
          47.0862
          71.8979
          71.8986
          71.8989
          71.899
          47.0862
          47.0862
          72.2453
          72.2454
          72.2454
          72.2453
          47.0862
          47.0862
          72.2831
          72.2831
          72.2831
          72.2831
          47.0862
          47.0862
          71.9789
          71.9789
          71.9786
          71.978
          47.0862
          47.0862
          47.0862
          47.0862
          47.0862
          47.0862
          47.0862
          47.0862
          47.0862
          71.9038
          71.9045
          71.9049
          71.9049
          47.0862
          47.0862
          72.2496
          72.2497
          72.2497
          72.2496
          47.0862
          47.0862
          72.2874
          72.2875
          72.2875
          72.2874
          47.0862
          47.0862
          71.9845
          71.9845
          71.9842
          71.9837
          47.0862
          47.0862
          47.0862
          47.0862
          47.0862
          47.0862
          47.0862
          47.0862
          47.0862
          71.9104
          71.911
          71.9114
          71.9114
          47.0862
          47.0862
          72.2543
          72.2544
          72.2544
          72.2543
          47.0862
          47.0862
          72.2921
          72.2922
          72.2922
          72.2921
          47.0862
          47.0862
          71.9907
          71.9907
          71.9904
          71.9899
          47.0862
          47.0862
          47.0862
          47.0862
          47.0862
          47.0862
          47.0862
          47.0862
          47.0862
          71.9175
          71.9181
          71.9185
          71.9185
          47.0862
          47.0862
          72.2594
          72.2594
          72.2595
          72.2594
          47.0862
          47.0862
          72.2972
          72.2972
          72.2972
          72.2971
          47.0862
          47.0862
          71.9975
          71.9974
          71.9971
          71.9966
          47.0862
          47.0862
          47.0862
          47.0862
          47.0862
          47.0862
          47.0862
          47.0862
          47.0862
          71.9252
          71.9258
          71.9262
          71.9262
          47.0862
          47.0862
          72.2648
          72.2649
          72.2649
          72.2648
          47.0862
          47.0862
          72.3026
          72.3027
          72.3027
          72.3026
          47.0862
          47.0862
          72.0047
          72.0047
          72.0044
          72.0039
          47.0862
          47.0862
          47.0862
          47.0862
          47.0862
          47.0862
          47.0862
          47.0862
          47.0862
          71.9335
          71.9341
          71.9345
          71.9345
          47.0862
          47.0862
          72.2706
          72.2706
          72.2707
          72.2706
          47.0862
          47.0862
          72.3084
          72.3084
          72.3084
          72.3084
          47.0862
          47.0862
          72.0126
          72.0125
          72.0123
          72.0117
          47.0862
          47.0862
          47.0862
          47.0862
          47.0862
          47.0862
          47.0862
          47.0862
          47.0862
          71.9423
          71.943
          71.9433
          71.9434
          47.0862
          47.0862
          72.2767
          72.2768
          72.2768
          72.2767
          47.0862
          47.0862
          72.3145
          72.3146
          72.3146
          72.3145
          47.0862
          47.0862
          72.0209
          72.0209
          72.0206
          72.0201
          47.0862
          47.0862
          47.0862
          47.0862
          47.0862
          47.0862
          47.0862
          47.0862
          47.0862
          71.9518
          71.9525
          71.9528
          71.9529
          47.0862
          47.0862
          72.2832
          72.2833
          72.2833
          72.2832
          47.0862
          47.0862
          72.321
          72.3211
          72.3211
          72.321
          47.0862
          47.0862
          72.0299
          72.0298
          72.0296
          72.029
          47.0862
          47.0862
          47.0862
          47.0862
          47.0862
          47.0862
          47.0862
          47.0862
          47.0862
          71.9618
          71.9625
          71.9629
          71.9629
          47.0862
          47.0862
          72.2901
          72.2902
          72.2902
          72.2901
          47.0862
          47.0862
          72.3279
          72.328
          72.328
          72.3279
          47.0862
          47.0862
          72.0393
          72.0393
          72.039
          72.0385
          47.0862
          47.0862
          47.0862
          47.0862
          47.0862
          47.0862
          47.0862
          47.0862
          47.0862
          71.9725
          71.9732
          71.9735
          71.9736
          47.0862
          47.0862
          72.2973
          72.2974
          72.2974
          72.2973
          47.0862
          47.0862
          72.3351
          72.3352
          72.3352
          72.3351
          47.0862
          47.0862
          72.0493
          72.0493
          72.049
          72.0485
          47.0862
          47.0862
          47.0862
          47.0862
          47.0862
          47.0862
          47.0862
          47.0862
          47.0862
          71.9837
          71.9844
          71.9847
          71.9848
          47.0862
          47.0862
          72.3049
          72.305
          72.305
          72.3049
          47.0862
          47.0862
          72.3427
          72.3428
          72.3428
          72.3427
          47.0862
          47.0862
          72.0599
          72.0599
          72.0596
          72.059
          47.0862
          47.0862
          47.0862
          47.0862
          47.0862
          47.0862
          47.0862
          47.0862
          47.0862
          71.9956
          71.9962
          71.9966
          71.9966
          47.0862
          47.0862
          72.3129
          72.3129
          72.313
          72.3129
          47.0862
          47.0862
          72.3507
          72.3508
          72.3508
          72.3507
          47.0862
          47.0862
          72.071
          72.071
          72.0707
          72.0701
          47.0862
          47.0862
          47.0862
          47.0862
          47.0862
          47.0862
          47.0862
          47.0862
          47.0862
          72.0079
          72.0086
          72.009
          72.0091
          47.0862
          47.0862
          72.3212
          72.3213
          72.3213
          72.3212
          47.0862
          47.0862
          72.3591
          72.3591
          72.3591
          72.359
          47.0862
          47.0862
          72.0826
          72.0826
          72.0823
          72.0817
          47.0862
          47.0862
          47.0862
          47.0862
          47.0862
          47.0862
          47.0862
          47.0862
          47.0862
          72.0209
          72.0216
          72.022
          72.0221
          47.0862
          47.0862
          72.3298
          72.3299
          72.33
          72.33
          47.0862
          47.0862
          72.3678
          72.3678
          72.3678
          72.3676
          47.0862
          47.0862
          72.0949
          72.0948
          72.0944
          72.0939
          47.0862
          47.0862
          47.0862
          47.0862
          47.0862
          47.0862
          47.0862
          47.0862
          47.0862
          72.0343
          72.035
          72.0357
          72.0359
          47.0862
          47.0862
          72.3386
          72.3388
          72.3392
          72.3392
          47.0862
          47.0862
          72.377
          72.377
          72.3767
          72.3766
          47.0862
          47.0862
          72.1078
          72.1076
          72.107
          72.1064
          47.0862
          47.0862
          47.0862
          47.0862
          47.0862
          47.0862
          47.0862
          47.0862
          47.0862
          72.0477
          72.0488
          72.0503
          72.0509
          47.0862
          47.0862
          72.3474
          72.3479
          72.3489
          72.3493
          47.0862
          47.0862
          72.3869
          72.3866
          72.3859
          72.3855
          47.0862
          47.0862
          72.1218
          72.1212
          72.1198
          72.1189
          47.0862
          47.0862
          47.0862
          47.0862
          47.0862
          47.0862
          47.0862
          47.0862
          47.0862
          72.0598
          72.0623
          72.0661
          72.0682
          47.0862
          47.0862
          72.3549
          72.3567
          72.3597
          72.3612
          47.0862
          47.0862
          72.3981
          72.3971
          72.395
          72.3938
          47.0862
          47.0862
          72.1381
          72.1361
          72.1324
          72.13
          47.0862
          47.0862
          47.0862
          47.0862
          47.0862
          47.0862
          47.0862
          47.0862
          47.0862
          72.0677
          72.0727
          72.0861
          72.0908
          47.0862
          47.0862
          72.3589
          72.3628
          72.3737
          72.3776
          47.0862
          47.0862
          72.4125
          72.4099
          72.4024
          72.3997
          47.0862
          47.0862
          72.1597
          72.155
          72.1418
          72.1368
          47.0862
          47.0862
          47.0862
          47.0862
          47.0862
          71.847
          71.9155
          71.9635
          72.007
          72.0546
          72.0798
          72.1059
          72.1436
          72.2216
          72.2804
          72.3409
          72.3686
          72.3902
          72.4135
          72.4481
          72.4558
          72.4393
          72.425
          72.4103
          72.3897
          72.3399
          72.286
          72.2109
          72.1739
          72.1481
          72.1226
          72.0748
          72.0326
          71.9893
          71.9414
          71.8729
          71.8749
          71.9221
          71.9659
          72.0077
          72.0468
          72.084
          72.1219
          72.1689
          72.2235
          72.2826
          72.3348
          72.378
          72.4107
          72.4376
          72.4567
          72.4642
          72.459
          72.4445
          72.4227
          72.3893
          72.3441
          72.2891
          72.2358
          72.1894
          72.1516
          72.1142
          72.075
          72.0335
          71.9919
          71.9481
          71.9009
          71.906
          71.9348
          71.9697
          72.008
          72.0471
          72.087
          72.1296
          72.1768
          72.2294
          72.2857
          72.345
          72.3977
          72.4365
          72.4642
          72.4819
          72.4888
          72.4849
          72.4705
          72.4453
          72.4077
          72.3552
          72.2972
          72.2442
          72.197
          72.1542
          72.114
          72.0743
          72.0346
          71.9959
          71.9609
          71.932
          71.9288
          71.9401
          71.9716
          72.0085
          72.0475
          72.0882
          72.1317
          72.1792
          72.2313
          72.2878
          72.3522
          72.4108
          72.4515
          72.4798
          72.4973
          72.5042
          72.5004
          72.4858
          72.4598
          72.4205
          72.3629
          72.3003
          72.2469
          72.199
          72.1554
          72.1142
          72.0743
          72.0351
          71.9979
          71.9662
          71.9549
        </DataArray>
      </PointData>
      <CellData>
      </CellData>
      <Points>
        <DataArray type="Float32" NumberOfComponents="3" format="ascii">
          0.039 0.00195 0.0
          0.0377 0.00195 0.0
          0.0364 0.00195 0.0
          0.0351 0.00195 0.0
          0.0338 0.00195 0.0
          0.0325 0.00195 0.0
          0.0312 0.00195 0.0
          0.0299 0.00195 0.0
          0.0286 0.00195 0.0
          0.0273 0.00195 0.0
          0.026 0.00195 0.0
          0.0247 0.00195 0.0
          0.0234 0.00195 0.0
          0.0221 0.00195 0.0
          0.0208 0.00195 0.0
          0.0195 0.00195 0.0
          0.0182 0.00195 0.0
          0.0169 0.00195 0.0
          0.0156 0.00195 0.0
          0.0143 0.00195 0.0
          0.013 0.00195 0.0
          0.0117 0.00195 0.0
          0.0104 0.00195 0.0
          0.0091 0.00195 0.0
          0.0078 0.00195 0.0
          0.0065 0.00195 0.0
          0.0052 0.00195 0.0
          0.0039 0.00195 0.0
          0.0026 0.00195 0.0
          0.0013 0.00195 0.0
          0 0.00195 0.0
          0.039 0.00065 0.0
          0.0377 0.00065 0.0
          0.0364 0.00065 0.0
          0.0351 0.00065 0.0
          0.0338 0.00065 0.0
          0.0325 0.00065 0.0
          0.0312 0.00065 0.0
          0.0299 0.00065 0.0
          0.0286 0.00065 0.0
          0.0273 0.00065 0.0
          0.026 0.00065 0.0
          0.0247 0.00065 0.0
          0.0234 0.00065 0.0
          0.0221 0.00065 0.0
          0.0208 0.00065 0.0
          0.0195 0.00065 0.0
          0.0182 0.00065 0.0
          0.0169 0.00065 0.0
          0.0156 0.00065 0.0
          0.0143 0.00065 0.0
          0.013 0.00065 0.0
          0.0117 0.00065 0.0
          0.0104 0.00065 0.0
          0.0091 0.00065 0.0
          0.0078 0.00065 0.0
          0.0065 0.00065 0.0
          0.0052 0.00065 0.0
          0.0039 0.00065 0.0
          0.0026 0.00065 0.0
          0.0013 0.00065 0.0
          0 0.00065 0.0
          0.039 -0.00065 0.0
          0.0377 -0.00065 0.0
          0.0364 -0.00065 0.0
          0.0351 -0.00065 0.0
          0.0338 -0.00065 0.0
          0.0325 -0.00065 0.0
          0.0312 -0.00065 0.0
          0.0299 -0.00065 0.0
          0.0286 -0.00065 0.0
          0.0273 -0.00065 0.0
          0.026 -0.00065 0.0
          0.0247 -0.00065 0.0
          0.0234 -0.00065 0.0
          0.0221 -0.00065 0.0
          0.0208 -0.00065 0.0
          0.0195 -0.00065 0.0
          0.0182 -0.00065 0.0
          0.0169 -0.00065 0.0
          0.0156 -0.00065 0.0
          0.0143 -0.00065 0.0
          0.013 -0.00065 0.0
          0.0117 -0.00065 0.0
          0.0104 -0.00065 0.0
          0.0091 -0.00065 0.0
          0.0078 -0.00065 0.0
          0.0065 -0.00065 0.0
          0.0052 -0.00065 0.0
          0.0039 -0.00065 0.0
          0.0026 -0.00065 0.0
          0.0013 -0.00065 0.0
          0 -0.00065 0.0
          0.039 -0.00195 0.0
          0.0377 -0.00195 0.0
          0.0364 -0.00195 0.0
          0.0351 -0.00195 0.0
          0.0338 -0.00195 0.0
          0.0325 -0.00195 0.0
          0.0312 -0.00195 0.0
          0.0299 -0.00195 0.0
          0.0286 -0.00195 0.0
          0.0273 -0.00195 0.0
          0.026 -0.00195 0.0
          0.0247 -0.00195 0.0
          0.0234 -0.00195 0.0
          0.0221 -0.00195 0.0
          0.0208 -0.00195 0.0
          0.0195 -0.00195 0.0
          0.0182 -0.00195 0.0
          0.0169 -0.00195 0.0
          0.0156 -0.00195 0.0
          0.0143 -0.00195 0.0
          0.013 -0.00195 0.0
          0.0117 -0.00195 0.0
          0.0104 -0.00195 0.0
          0.0091 -0.00195 0.0
          0.0078 -0.00195 0.0
          0.0065 -0.00195 0.0
          0.0052 -0.00195 0.0
          0.0039 -0.00195 0.0
          0.0026 -0.00195 0.0
          0.0013 -0.00195 0.0
          0 -0.00195 0.0
          0.039 -0.00325 0.0
          0.0377 -0.00325 0.0
          0.0364 -0.00325 0.0
          0.0351 -0.00325 0.0
          0.0338 -0.00325 0.0
          0.0325 -0.00325 0.0
          0.0312 -0.00325 0.0
          0.0299 -0.00325 0.0
          0.0286 -0.00325 0.0
          0.0273 -0.00325 0.0
          0.026 -0.00325 0.0
          0.0247 -0.00325 0.0
          0.0234 -0.00325 0.0
          0.0221 -0.00325 0.0
          0.0208 -0.00325 0.0
          0.0195 -0.00325 0.0
          0.0182 -0.00325 0.0
          0.0169 -0.00325 0.0
          0.0156 -0.00325 0.0
          0.0143 -0.00325 0.0
          0.013 -0.00325 0.0
          0.0117 -0.00325 0.0
          0.0104 -0.00325 0.0
          0.0091 -0.00325 0.0
          0.0078 -0.00325 0.0
          0.0065 -0.00325 0.0
          0.0052 -0.00325 0.0
          0.0039 -0.00325 0.0
          0.0026 -0.00325 0.0
          0.0013 -0.00325 0.0
          0 -0.00325 0.0
          0.039 -0.00455 0.0
          0.0377 -0.00455 0.0
          0.0364 -0.00455 0.0
          0.0351 -0.00455 0.0
          0.0338 -0.00455 0.0
          0.0325 -0.00455 0.0
          0.0312 -0.00455 0.0
          0.0299 -0.00455 0.0
          0.0286 -0.00455 0.0
          0.0273 -0.00455 0.0
          0.026 -0.00455 0.0
          0.0247 -0.00455 0.0
          0.0234 -0.00455 0.0
          0.0221 -0.00455 0.0
          0.0208 -0.00455 0.0
          0.0195 -0.00455 0.0
          0.0182 -0.00455 0.0
          0.0169 -0.00455 0.0
          0.0156 -0.00455 0.0
          0.0143 -0.00455 0.0
          0.013 -0.00455 0.0
          0.0117 -0.00455 0.0
          0.0104 -0.00455 0.0
          0.0091 -0.00455 0.0
          0.0078 -0.00455 0.0
          0.0065 -0.00455 0.0
          0.0052 -0.00455 0.0
          0.0039 -0.00455 0.0
          0.0026 -0.00455 0.0
          0.0013 -0.00455 0.0
          0 -0.00455 0.0
          0.039 -0.00585 0.0
          0.0377 -0.00585 0.0
          0.0364 -0.00585 0.0
          0.0351 -0.00585 0.0
          0.0338 -0.00585 0.0
          0.0325 -0.00585 0.0
          0.0312 -0.00585 0.0
          0.0299 -0.00585 0.0
          0.0286 -0.00585 0.0
          0.0273 -0.00585 0.0
          0.026 -0.00585 0.0
          0.0247 -0.00585 0.0
          0.0234 -0.00585 0.0
          0.0221 -0.00585 0.0
          0.0208 -0.00585 0.0
          0.0195 -0.00585 0.0
          0.0182 -0.00585 0.0
          0.0169 -0.00585 0.0
          0.0156 -0.00585 0.0
          0.0143 -0.00585 0.0
          0.013 -0.00585 0.0
          0.0117 -0.00585 0.0
          0.0104 -0.00585 0.0
          0.0091 -0.00585 0.0
          0.0078 -0.00585 0.0
          0.0065 -0.00585 0.0
          0.0052 -0.00585 0.0
          0.0039 -0.00585 0.0
          0.0026 -0.00585 0.0
          0.0013 -0.00585 0.0
          0 -0.00585 0.0
          0.039 -0.00715 0.0
          0.0377 -0.00715 0.0
          0.0364 -0.00715 0.0
          0.0351 -0.00715 0.0
          0.0338 -0.00715 0.0
          0.0325 -0.00715 0.0
          0.0312 -0.00715 0.0
          0.0299 -0.00715 0.0
          0.0286 -0.00715 0.0
          0.0273 -0.00715 0.0
          0.026 -0.00715 0.0
          0.0247 -0.00715 0.0
          0.0234 -0.00715 0.0
          0.0221 -0.00715 0.0
          0.0208 -0.00715 0.0
          0.0195 -0.00715 0.0
          0.0182 -0.00715 0.0
          0.0169 -0.00715 0.0
          0.0156 -0.00715 0.0
          0.0143 -0.00715 0.0
          0.013 -0.00715 0.0
          0.0117 -0.00715 0.0
          0.0104 -0.00715 0.0
          0.0091 -0.00715 0.0
          0.0078 -0.00715 0.0
          0.0065 -0.00715 0.0
          0.0052 -0.00715 0.0
          0.0039 -0.00715 0.0
          0.0026 -0.00715 0.0
          0.0013 -0.00715 0.0
          0 -0.00715 0.0
          0.039 -0.00845 0.0
          0.0377 -0.00845 0.0
          0.0364 -0.00845 0.0
          0.0351 -0.00845 0.0
          0.0338 -0.00845 0.0
          0.0325 -0.00845 0.0
          0.0312 -0.00845 0.0
          0.0299 -0.00845 0.0
          0.0286 -0.00845 0.0
          0.0273 -0.00845 0.0
          0.026 -0.00845 0.0
          0.0247 -0.00845 0.0
          0.0234 -0.00845 0.0
          0.0221 -0.00845 0.0
          0.0208 -0.00845 0.0
          0.0195 -0.00845 0.0
          0.0182 -0.00845 0.0
          0.0169 -0.00845 0.0
          0.0156 -0.00845 0.0
          0.0143 -0.00845 0.0
          0.013 -0.00845 0.0
          0.0117 -0.00845 0.0
          0.0104 -0.00845 0.0
          0.0091 -0.00845 0.0
          0.0078 -0.00845 0.0
          0.0065 -0.00845 0.0
          0.0052 -0.00845 0.0
          0.0039 -0.00845 0.0
          0.0026 -0.00845 0.0
          0.0013 -0.00845 0.0
          0 -0.00845 0.0
          0.039 -0.00975 0.0
          0.0377 -0.00975 0.0
          0.0364 -0.00975 0.0
          0.0351 -0.00975 0.0
          0.0338 -0.00975 0.0
          0.0325 -0.00975 0.0
          0.0312 -0.00975 0.0
          0.0299 -0.00975 0.0
          0.0286 -0.00975 0.0
          0.0273 -0.00975 0.0
          0.026 -0.00975 0.0
          0.0247 -0.00975 0.0
          0.0234 -0.00975 0.0
          0.0221 -0.00975 0.0
          0.0208 -0.00975 0.0
          0.0195 -0.00975 0.0
          0.0182 -0.00975 0.0
          0.0169 -0.00975 0.0
          0.0156 -0.00975 0.0
          0.0143 -0.00975 0.0
          0.013 -0.00975 0.0
          0.0117 -0.00975 0.0
          0.0104 -0.00975 0.0
          0.0091 -0.00975 0.0
          0.0078 -0.00975 0.0
          0.0065 -0.00975 0.0
          0.0052 -0.00975 0.0
          0.0039 -0.00975 0.0
          0.0026 -0.00975 0.0
          0.0013 -0.00975 0.0
          0 -0.00975 0.0
          0.039 -0.01105 0.0
          0.0377 -0.01105 0.0
          0.0364 -0.01105 0.0
          0.0351 -0.01105 0.0
          0.0338 -0.01105 0.0
          0.0325 -0.01105 0.0
          0.0312 -0.01105 0.0
          0.0299 -0.01105 0.0
          0.0286 -0.01105 0.0
          0.0273 -0.01105 0.0
          0.026 -0.01105 0.0
          0.0247 -0.01105 0.0
          0.0234 -0.01105 0.0
          0.0221 -0.01105 0.0
          0.0208 -0.01105 0.0
          0.0195 -0.01105 0.0
          0.0182 -0.01105 0.0
          0.0169 -0.01105 0.0
          0.0156 -0.01105 0.0
          0.0143 -0.01105 0.0
          0.013 -0.01105 0.0
          0.0117 -0.01105 0.0
          0.0104 -0.01105 0.0
          0.0091 -0.01105 0.0
          0.0078 -0.01105 0.0
          0.0065 -0.01105 0.0
          0.0052 -0.01105 0.0
          0.0039 -0.01105 0.0
          0.0026 -0.01105 0.0
          0.0013 -0.01105 0.0
          0 -0.01105 0.0
          0.039 -0.01235 0.0
          0.0377 -0.01235 0.0
          0.0364 -0.01235 0.0
          0.0351 -0.01235 0.0
          0.0338 -0.01235 0.0
          0.0325 -0.01235 0.0
          0.0312 -0.01235 0.0
          0.0299 -0.01235 0.0
          0.0286 -0.01235 0.0
          0.0273 -0.01235 0.0
          0.026 -0.01235 0.0
          0.0247 -0.01235 0.0
          0.0234 -0.01235 0.0
          0.0221 -0.01235 0.0
          0.0208 -0.01235 0.0
          0.0195 -0.01235 0.0
          0.0182 -0.01235 0.0
          0.0169 -0.01235 0.0
          0.0156 -0.01235 0.0
          0.0143 -0.01235 0.0
          0.013 -0.01235 0.0
          0.0117 -0.01235 0.0
          0.0104 -0.01235 0.0
          0.0091 -0.01235 0.0
          0.0078 -0.01235 0.0
          0.0065 -0.01235 0.0
          0.0052 -0.01235 0.0
          0.0039 -0.01235 0.0
          0.0026 -0.01235 0.0
          0.0013 -0.01235 0.0
          0 -0.01235 0.0
          0.039 -0.01365 0.0
          0.0377 -0.01365 0.0
          0.0364 -0.01365 0.0
          0.0351 -0.01365 0.0
          0.0338 -0.01365 0.0
          0.0325 -0.01365 0.0
          0.0312 -0.01365 0.0
          0.0299 -0.01365 0.0
          0.0286 -0.01365 0.0
          0.0273 -0.01365 0.0
          0.026 -0.01365 0.0
          0.0247 -0.01365 0.0
          0.0234 -0.01365 0.0
          0.0221 -0.01365 0.0
          0.0208 -0.01365 0.0
          0.0195 -0.01365 0.0
          0.0182 -0.01365 0.0
          0.0169 -0.01365 0.0
          0.0156 -0.01365 0.0
          0.0143 -0.01365 0.0
          0.013 -0.01365 0.0
          0.0117 -0.01365 0.0
          0.0104 -0.01365 0.0
          0.0091 -0.01365 0.0
          0.0078 -0.01365 0.0
          0.0065 -0.01365 0.0
          0.0052 -0.01365 0.0
          0.0039 -0.01365 0.0
          0.0026 -0.01365 0.0
          0.0013 -0.01365 0.0
          0 -0.01365 0.0
          0.039 -0.01495 0.0
          0.0377 -0.01495 0.0
          0.0364 -0.01495 0.0
          0.0351 -0.01495 0.0
          0.0338 -0.01495 0.0
          0.0325 -0.01495 0.0
          0.0312 -0.01495 0.0
          0.0299 -0.01495 0.0
          0.0286 -0.01495 0.0
          0.0273 -0.01495 0.0
          0.026 -0.01495 0.0
          0.0247 -0.01495 0.0