<?xml version="1.0"?>
<VTKFile type="UnstructuredGrid" version="0.1" byte_order="LittleEndian">
  <UnstructuredGrid>
    <Piece NumberOfPoints="961" NumberOfCells="900">
      <PointData Scalars="Temperature">
        <DataArray type="Float32" Name="Temperature" format="ascii">
          50.2873
          50.2873
          50.2873
          50.2873
          50.2873
          50.2873
          50.2873
          50.2873
          50.2873
          50.2873
          50.2873
          50.2873
          50.2873
          50.2873
          50.2873
          50.2873
          50.2873
          50.2873
          50.2873
          50.2873
          50.2873
          50.2873
          50.2873
          50.2873
          50.2873
          50.2873
          50.2873
          50.2873
          50.2873
          50.2873
          50.2873
          50.2873
          50.2873
          50.2873
          50.2873
          50.2873
          50.2873
          50.2873
          50.2873
          50.2873
          50.2873
          50.2873
          50.2873
          50.2873
          50.2873
          50.2873
          50.2873
          50.2873
          50.2873
          50.2873
          50.2873
          50.2873
          50.2873
          50.2873
          50.2873
          50.2873
          50.2873
          50.2873
          50.2873
          50.2873
          50.2873
          50.2873
          50.2873
          50.2873
          50.2873
          50.2873
          50.2873
          50.2873
          50.2873
          50.2873
          50.2873
          50.2873
          50.2873
          50.2873
          50.2873
          50.2873
          50.2873
          50.2873
          50.2873
          50.2873
          50.2873
          50.2873
          50.2873
          50.2873
          50.2873
          50.2873
          50.2873
          50.2873
          50.2873
          50.2873
          50.2873
          50.2873
          50.2873
          50.2873
          50.2873
          50.2873
          50.2873
          78.1371
          78.1396
          78.1402
          78.139
          50.2873
          50.2873
          78.5132
          78.5146
          78.5146
          78.5132
          50.2873
          50.2873
          78.5515
          78.5529
          78.5529
          78.5515
          50.2873
          50.2873
          78.223
          78.2243
          78.2238
          78.2215
          50.2873
          50.2873
          50.2873
          50.2873
          50.2873
          50.2873
          50.2873
          50.2873
          50.2873
          78.1406
          78.1416
          78.1421
          78.1419
          50.2873
          50.2873
          78.516
          78.5163
          78.5163
          78.516
          50.2873
          50.2873
          78.5544
          78.5546
          78.5546
          78.5544
          50.2873
          50.2873
          78.226
          78.2261
          78.2257
          78.2249
          50.2873
          50.2873
          50.2873
          50.2873
          50.2873
          50.2873
          50.2873
          50.2873
          50.2873
          78.1438
          78.1446
          78.145
          78.145
          50.2873
          50.2873
          78.5186
          78.5188
          78.5188
          78.5187
          50.2873
          50.2873
          78.557
          78.5571
          78.5571
          78.557
          50.2873
          50.2873
          78.229
          78.229
          78.2287
          78.228
          50.2873
          50.2873
          50.2873
          50.2873
          50.2873
          50.2873
          50.2873
          50.2873
          50.2873
          78.1475
          78.1483
          78.1487
          78.1487
          50.2873
          50.2873
          78.5215
          78.5216
          78.5217
          78.5215
          50.2873
          50.2873
          78.5599
          78.56
          78.56
          78.5599
          50.2873
          50.2873
          78.2325
          78.2325
          78.2322
          78.2315
          50.2873
          50.2873
          50.2873
          50.2873
          50.2873
          50.2873
          50.2873
          50.2873
          50.2873
          78.1517
          78.1524
          78.1528
          78.1529
          50.2873
          50.2873
          78.5247
          78.5248
          78.5248
          78.5247
          50.2873
          50.2873
          78.5631
          78.5632
          78.5632
          78.563
          50.2873
          50.2873
          78.2366
          78.2365
          78.2362
          78.2356
          50.2873
          50.2873
          50.2873
          50.2873
          50.2873
          50.2873
          50.2873
          50.2873
          50.2873
          78.1564
          78.1572
          78.1576
          78.1576
          50.2873
          50.2873
          78.5281
          78.5282
          78.5282
          78.5281
          50.2873
          50.2873
          78.5665
          78.5666
          78.5666
          78.5665
          50.2873
          50.2873
          78.2411
          78.241
          78.2407
          78.2401
          50.2873
          50.2873
          50.2873
          50.2873
          50.2873
          50.2873
          50.2873
          50.2873
          50.2873
          78.1617
          78.1624
          78.1628
          78.1629
          50.2873
          50.2873
          78.5318
          78.5319
          78.5319
          78.5318
          50.2873
          50.2873
          78.5702
          78.5703
          78.5703
          78.5702
          50.2873
          50.2873
          78.246
          78.246
          78.2457
          78.2451
          50.2873
          50.2873
          50.2873
          50.2873
          50.2873
          50.2873
          50.2873
          50.2873
          50.2873
          78.1674
          78.1682
          78.1686
          78.1686
          50.2873
          50.2873
          78.5358
          78.5359
          78.5359
          78.5358
          50.2873
          50.2873
          78.5742
          78.5743
          78.5743
          78.5742
          50.2873
          50.2873
          78.2515
          78.2515
          78.2512
          78.2505
          50.2873
          50.2873
          50.2873
          50.2873
          50.2873
          50.2873
          50.2873
          50.2873
          50.2873
          78.1737
          78.1745
          78.1749
          78.1749
          50.2873
          50.2873
          78.5401
          78.5402
          78.5402
          78.5401
          50.2873
          50.2873
          78.5784
          78.5785
          78.5785
          78.5784
          50.2873
          50.2873
          78.2574
          78.2574
          78.2571
          78.2565
          50.2873
          50.2873
          50.2873
          50.2873
          50.2873
          50.2873
          50.2873
          50.2873
          50.2873
          78.1806
          78.1813
          78.1817
          78.1818
          50.2873
          50.2873
          78.5446
          78.5447
          78.5447
          78.5446
          50.2873
          50.2873
          78.583
          78.583
          78.583
          78.583
          50.2873
          50.2873
          78.2639
          78.2638
          78.2635
          78.2629
          50.2873
          50.2873
          50.2873
          50.2873
          50.2873
          50.2873
          50.2873
          50.2873
          50.2873
          78.1879
          78.1887
          78.1891
          78.1891
          50.2873
          50.2873
          78.5494
          78.5495
          78.5495
          78.5494
          50.2873
          50.2873
          78.5878
          78.5878
          78.5878
          78.5877
          50.2873
          50.2873
          78.2708
          78.2707
          78.2704
          78.2698
          50.2873
          50.2873
          50.2873
          50.2873
          50.2873
          50.2873
          50.2873
          50.2873
          50.2873
          78.1958
          78.1966
          78.197
          78.197
          50.2873
          50.2873
          78.5544
          78.5545
          78.5545
          78.5544
          50.2873
          50.2873
          78.5928
          78.5929
          78.5929
          78.5928
          50.2873
          50.2873
          78.2781
          78.2781
          78.2778
          78.2772
          50.2873
          50.2873
          50.2873
          50.2873
          50.2873
          50.2873
          50.2873
          50.2873
          50.2873
          78.2042
          78.205
          78.2054
          78.2054
          50.2873
          50.2873
          78.5598
          78.5599
          78.5599
          78.5598
          50.2873
          50.2873
          78.5982
          78.5982
          78.5982
          78.5982
          50.2873
          50.2873
          78.286
          78.2859
          78.2856
          78.285
          50.2873
          50.2873
          50.2873
          50.2873
          50.2873
          50.2873
          50.2873
          50.2873
          50.2873
          78.2132
          78.2139
          78.2143
          78.2143
          50.2873
          50.2873
          78.5654
          78.5655
          78.5655
          78.5654
          50.2873
          50.2873
          78.6038
          78.6039
          78.6039
          78.6038
          50.2873
          50.2873
          78.2943
          78.2943
          78.2939
          78.2933
          50.2873
          50.2873
          50.2873
          50.2873
          50.2873
          50.2873
          50.2873
          50.2873
          50.2873
          78.2226
          78.2234
          78.2238
          78.2238
          50.2873
          50.2873
          78.5712
          78.5713
          78.5713
          78.5713
          50.2873
          50.2873
          78.6097
          78.6097
          78.6097
          78.6096
          50.2873
          50.2873
          78.3031
          78.3031
          78.3027
          78.3021
          50.2873
          50.2873
          50.2873
          50.2873
          50.2873
          50.2873
          50.2873
          50.2873
          50.2873
          78.2326
          78.2334
          78.2338
          78.2338
          50.2873
          50.2873
          78.5774
          78.5775
          78.5775
          78.5774
          50.2873
          50.2873
          78.6158
          78.6159
          78.6159
          78.6158
          50.2873
          50.2873
          78.3124
          78.3123
          78.312
          78.3114
          50.2873
          50.2873
          50.2873
          50.2873
          50.2873
          50.2873
          50.2873
          50.2873
          50.2873
          78.2431
          78.2439
          78.2443
          78.2443
          50.2873
          50.2873
          78.5838
          78.5839
          78.5839
          78.5838
          50.2873
          50.2873
          78.6222
          78.6223
          78.6223
          78.6222
          50.2873
          50.2873
          78.3221
          78.3221
          78.3218
          78.3212
          50.2873
          50.2873
          50.2873
          50.2873
          50.2873
          50.2873
          50.2873
          50.2873
          50.2873
          78.2542
          78.2549
          78.2553
          78.2554
          50.2873
          50.2873
          78.5905
          78.5906
          78.5906
          78.5905
          50.2873
          50.2873
          78.6289
          78.629
          78.629
          78.6289
          50.2873
          50.2873
          78.3323
          78.3323
          78.332
          78.3314
          50.2873
          50.2873
          50.2873
          50.2873
          50.2873
          50.2873
          50.2873
          50.2873
          50.2873
          78.2657
          78.2665
          78.2669
          78.267
          50.2873
          50.2873
          78.5974
          78.5975
          78.5976
          78.5975
          50.2873
          50.2873
          78.6359
          78.636
          78.636
          78.6359
          50.2873
          50.2873
          78.343
          78.343
          78.3427
          78.3421
          50.2873
          50.2873
          50.2873
          50.2873
          50.2873
          50.2873
          50.2873
          50.2873
          50.2873
          78.2778
          78.2785
          78.279
          78.2791
          50.2873
          50.2873
          78.6046
          78.6047
          78.6048
          78.6048
          50.2873
          50.2873
          78.6432
          78.6433
          78.6432
          78.6431
          50.2873
          50.2873
          78.3543
          78.3542
          78.3538
          78.3532
          50.2873
          50.2873
          50.2873
          50.2873
          50.2873
          50.2873
          50.2873
          50.2873
          50.2873
          78.2901
          78.291
          78.2918
          78.292
          50.2873
          50.2873
          78.6119
          78.6121
          78.6124
          78.6125
          50.2873
          50.2873
          78.6509
          78.6508
          78.6506
          78.6504
          50.2873
          50.2873
          78.3662
          78.366
          78.3653
          78.3646
          50.2873
          50.2873
          50.2873
          50.2873
          50.2873
          50.2873
          50.2873
          50.2873
          50.2873
          78.3025
          78.3037
          78.3053
          78.3059
          50.2873
          50.2873
          78.619
          78.6195
          78.6206
          78.621
          50.2873
          50.2873
          78.6591
          78.6589
          78.6582
          78.6577
          50.2873
          50.2873
          78.3791
          78.3784
          78.3769
          78.3759
          50.2873
          50.2873
          50.2873
          50.2873
          50.2873
          50.2873
          50.2873
          50.2873
          50.2873
          78.3134
          78.316
          78.3202
          78.3223
          50.2873
          50.2873
          78.6248
          78.6265
          78.6296
          78.6313
          50.2873
          50.2873
          78.6687
          78.6676
          78.6655
          78.6642
          50.2873
          50.2873
          78.3943
          78.3922
          78.3881
          78.3856
          50.2873
          50.2873
          50.2873
          50.2873
          50.2873
          50.2873
          50.2873
          50.2873
          50.2873
          78.3195
          78.3249
          78.3393
          78.3444
          50.2873
          50.2873
          78.6266
          78.6308
          78.642
          78.646
          50.2873
          50.2873
          78.6815
          78.6787
          78.671
          78.6681
          50.2873
          50.2873
          78.4152
          78.4101
          78.3959
          78.3906
          50.2873
          50.2873
          50.2873
          50.2873
          50.2873
          78.0693
          78.1461
          78.1999
          78.2485
          78.3023
          78.3305
          78.3585
          78.398
          78.4792
          78.5408
          78.6053
          78.6347
          78.6571
          78.6804
          78.7147
          78.7225
          78.7066
          78.6924
          78.677
          78.6548
          78.6014
          78.5448
          78.4669
          78.4283
          78.4006
          78.3722
          78.3183
          78.2713
          78.223
          78.1694
          78.0926
          78.1006
          78.1534
          78.2025
          78.2492
          78.2926
          78.3334
          78.3741
          78.4238
          78.481
          78.5429
          78.5976
          78.6427
          78.6765
          78.7039
          78.7232
          78.7308
          78.7256
          78.7108
          78.6881
          78.6529
          78.6055
          78.5479
          78.4922
          78.4432
          78.4028
          78.3619
          78.3184
          78.2722
          78.2259
          78.1769
          78.124
          78.1354
          78.1677
          78.2067
          78.2492
          78.2923
          78.3358
          78.3816
          78.4316
          78.4869
          78.5457
          78.6072
          78.6617
          78.7017
          78.7302
          78.7481
          78.7552
          78.7511
          78.7362
          78.71
          78.6708
          78.6163
          78.556
          78.5005
          78.4505
          78.4048
          78.3611
          78.3173
          78.2734
          78.2304
          78.1912
          78.1589
          78.161
          78.1736
          78.2087
          78.2497
          78.2926
          78.3369
          78.3835
          78.434
          78.4887
          78.5478
          78.6142
          78.6746
          78.7165
          78.7456
          78.7635
          78.7705
          78.7665
          78.7513
          78.7242
          78.6834
          78.6238
          78.559
          78.5031
          78.4525
          78.4057
          78.3611
          78.3173
          78.2739
          78.2326
          78.1972
          78.1846
        </DataArray>
      </PointData>
      <CellData>
      </CellData>
      <Points>
        <DataArray type="Float32" NumberOfComponents="3" format="ascii">
          0.039 0.00195 0.0
          0.0377 0.00195 0.0
          0.0364 0.00195 0.0
          0.0351 0.00195 0.0
          0.0338 0.00195 0.0
          0.0325 0.00195 0.0
          0.0312 0.00195 0.0
          0.0299 0.00195 0.0
          0.0286 0.00195 0.0
          0.0273 0.00195 0.0
          0.026 0.00195 0.0
          0.0247 0.00195 0.0
          0.0234 0.00195 0.0
          0.0221 0.00195 0.0
          0.0208 0.00195 0.0
          0.0195 0.00195 0.0
          0.0182 0.00195 0.0
          0.0169 0.00195 0.0
          0.0156 0.00195 0.0
          0.0143 0.00195 0.0
          0.013 0.00195 0.0
          0.0117 0.00195 0.0
          0.0104 0.00195 0.0
          0.0091 0.00195 0.0
          0.0078 0.00195 0.0
          0.0065 0.00195 0.0
          0.0052 0.00195 0.0
          0.0039 0.00195 0.0
          0.0026 0.00195 0.0
          0.0013 0.00195 0.0
          0 0.00195 0.0
          0.039 0.00065 0.0
          0.0377 0.00065 0.0
          0.0364 0.00065 0.0
          0.0351 0.00065 0.0
          0.0338 0.00065 0.0
          0.0325 0.00065 0.0
          0.0312 0.00065 0.0
          0.0299 0.00065 0.0
          0.0286 0.00065 0.0
          0.0273 0.00065 0.0
          0.026 0.00065 0.0
          0.0247 0.00065 0.0
          0.0234 0.00065 0.0
          0.0221 0.00065 0.0
          0.0208 0.00065 0.0
          0.0195 0.00065 0.0
          0.0182 0.00065 0.0
          0.0169 0.00065 0.0
          0.0156 0.00065 0.0
          0.0143 0.00065 0.0
          0.013 0.00065 0.0
          0.0117 0.00065 0.0
          0.0104 0.00065 0.0
          0.0091 0.00065 0.0
          0.0078 0.00065 0.0
          0.0065 0.00065 0.0
          0.0052 0.00065 0.0
          0.0039 0.00065 0.0
          0.0026 0.00065 0.0
          0.0013 0.00065 0.0
          0 0.00065 0.0
          0.039 -0.00065 0.0
          0.0377 -0.00065 0.0
          0.0364 -0.00065 0.0
          0.0351 -0.00065 0.0
          0.0338 -0.00065 0.0
          0.0325 -0.00065 0.0
          0.0312 -0.00065 0.0
          0.0299 -0.00065 0.0
          0.0286 -0.00065 0.0
          0.0273 -0.00065 0.0
          0.026 -0.00065 0.0
          0.0247 -0.00065 0.0
          0.0234 -0.00065 0.0
          0.0221 -0.00065 0.0
          0.0208 -0.00065 0.0
          0.0195 -0.00065 0.0
          0.0182 -0.00065 0.0
          0.0169 -0.00065 0.0
          0.0156 -0.00065 0.0
          0.0143 -0.00065 0.0
          0.013 -0.00065 0.0
          0.0117 -0.00065 0.0
          0.0104 -0.00065 0.0
          0.0091 -0.00065 0.0
          0.0078 -0.00065 0.0
          0.0065 -0.00065 0.0
          0.0052 -0.00065 0.0
          0.0039 -0.00065 0.0
          0.0026 -0.00065 0.0
          0.0013 -0.00065 0.0
          0 -0.00065 0.0
          0.039 -0.00195 0.0
          0.0377 -0.00195 0.0
          0.0364 -0.00195 0.0
          0.0351 -0.00195 0.0
          0.0338 -0.00195 0.0
          0.0325 -0.00195 0.0
          0.0312 -0.00195 0.0
          0.0299 -0.00195 0.0
          0.0286 -0.00195 0.0
          0.0273 -0.00195 0.0
          0.026 -0.00195 0.0
          0.0247 -0.00195 0.0
          0.0234 -0.00195 0.0
          0.0221 -0.00195 0.0
          0.0208 -0.00195 0.0
          0.0195 -0.00195 0.0
          0.0182 -0.00195 0.0
          0.0169 -0.00195 0.0
          0.0156 -0.00195 0.0
          0.0143 -0.00195 0.0
          0.013 -0.00195 0.0
          0.0117 -0.00195 0.0
          0.0104 -0.00195 0.0
          0.0091 -0.00195 0.0
          0.0078 -0.00195 0.0
          0.0065 -0.00195 0.0
          0.0052 -0.00195 0.0
          0.0039 -0.00195 0.0
          0.0026 -0.00195 0.0
          0.0013 -0.00195 0.0
          0 -0.00195 0.0
          0.039 -0.00325 0.0
          0.0377 -0.00325 0.0
          0.0364 -0.00325 0.0
          0.0351 -0.00325 0.0
          0.0338 -0.00325 0.0
          0.0325 -0.00325 0.0
          0.0312 -0.00325 0.0
          0.0299 -0.00325 0.0
          0.0286 -0.00325 0.0
          0.0273 -0.00325 0.0
          0.026 -0.00325 0.0
          0.0247 -0.00325 0.0
          0.0234 -0.00325 0.0
          0.0221 -0.00325 0.0
          0.0208 -0.00325 0.0
          0.0195 -0.00325 0.0
          0.0182 -0.00325 0.0
          0.0169 -0.00325 0.0
          0.0156 -0.00325 0.0
          0.0143 -0.00325 0.0
          0.013 -0.00325 0.0
          0.0117 -0.00325 0.0
          0.0104 -0.00325 0.0
          0.0091 -0.00325 0.0
          0.0078 -0.00325 0.0
          0.0065 -0.00325 0.0
          0.0052 -0.00325 0.0
          0.0039 -0.00325 0.0
          0.0026 -0.00325 0.0
          0.0013 -0.00325 0.0
          0 -0.00325 0.0
          0.039 -0.00455 0.0
          0.0377 -0.00455 0.0
          0.0364 -0.00455 0.0
          0.0351 -0.00455 0.0
          0.0338 -0.00455 0.0
          0.0325 -0.00455 0.0
          0.0312 -0.00455 0.0
          0.0299 -0.00455 0.0
          0.0286 -0.00455 0.0
          0.0273 -0.00455 0.0
          0.026 -0.00455 0.0
          0.0247 -0.00455 0.0
          0.0234 -0.00455 0.0
          0.0221 -0.00455 0.0
          0.0208 -0.00455 0.0
          0.0195 -0.00455 0.0
          0.0182 -0.00455 0.0
          0.0169 -0.00455 0.0
          0.0156 -0.00455 0.0
          0.0143 -0.00455 0.0
          0.013 -0.00455 0.0
          0.0117 -0.00455 0.0
          0.0104 -0.00455 0.0
          0.0091 -0.00455 0.0
          0.0078 -0.00455 0.0
          0.0065 -0.00455 0.0
          0.0052 -0.00455 0.0
          0.0039 -0.00455 0.0
          0.0026 -0.00455 0.0
          0.0013 -0.00455 0.0
          0 -0.00455 0.0
          0.039 -0.00585 0.0
          0.0377 -0.00585 0.0
          0.0364 -0.00585 0.0
          0.0351 -0.00585 0.0
          0.0338 -0.00585 0.0
          0.0325 -0.00585 0.0
          0.0312 -0.00585 0.0
          0.0299 -0.00585 0.0
          0.0286 -0.00585 0.0
          0.0273 -0.00585 0.0
          0.026 -0.00585 0.0
          0.0247 -0.00585 0.0
          0.0234 -0.00585 0.0
          0.0221 -0.00585 0.0
          0.0208 -0.00585 0.0
          0.0195 -0.00585 0.0
          0.0182 -0.00585 0.0
          0.0169 -0.00585 0.0
          0.0156 -0.00585 0.0
          0.0143 -0.00585 0.0
          0.013 -0.00585 0.0
          0.0117 -0.00585 0.0
          0.0104 -0.00585 0.0
          0.0091 -0.00585 0.0
          0.0078 -0.00585 0.0
          0.0065 -0.00585 0.0
          0.0052 -0.00585 0.0
          0.0039 -0.00585 0.0
          0.0026 -0.00585 0.0
          0.0013 -0.00585 0.0
          0 -0.00585 0.0
          0.039 -0.00715 0.0
          0.0377 -0.00715 0.0
          0.0364 -0.00715 0.0
          0.0351 -0.00715 0.0
          0.0338 -0.00715 0.0
          0.0325 -0.00715 0.0
          0.0312 -0.00715 0.0
          0.0299 -0.00715 0.0
          0.0286 -0.00715 0.0
          0.0273 -0.00715 0.0
          0.026 -0.00715 0.0
          0.0247 -0.00715 0.0
          0.0234 -0.00715 0.0
          0.0221 -0.00715 0.0
          0.0208 -0.00715 0.0
          0.0195 -0.00715 0.0
          0.0182 -0.00715 0.0
          0.0169 -0.00715 0.0
          0.0156 -0.00715 0.0
          0.0143 -0.00715 0.0
          0.013 -0.00715 0.0
          0.0117 -0.00715 0.0
          0.0104 -0.00715 0.0
          0.0091 -0.00715 0.0
          0.0078 -0.00715 0.0
          0.0065 -0.00715 0.0
          0.0052 -0.00715 0.0
          0.0039 -0.00715 0.0
          0.0026 -0.00715 0.0
          0.0013 -0.00715 0.0
          0 -0.00715 0.0
          0.039 -0.00845 0.0
          0.0377 -0.00845 0.0
          0.0364 -0.00845 0.0
          0.0351 -0.00845 0.0
          0.0338 -0.00845 0.0
          0.0325 -0.00845 0.0
          0.0312 -0.00845 0.0
          0.0299 -0.00845 0.0
          0.0286 -0.00845 0.0
          0.0273 -0.00845 0.0
          0.026 -0.00845 0.0
          0.0247 -0.00845 0.0
          0.0234 -0.00845 0.0
          0.0221 -0.00845 0.0
          0.0208 -0.00845 0.0
          0.0195 -0.00845 0.0
          0.0182 -0.00845 0.0
          0.0169 -0.00845 0.0
          0.0156 -0.00845 0.0
          0.0143 -0.00845 0.0
          0.013 -0.00845 0.0
          0.0117 -0.00845 0.0
          0.0104 -0.00845 0.0
          0.0091 -0.00845 0.0
          0.0078 -0.00845 0.0
          0.0065 -0.00845 0.0
          0.0052 -0.00845 0.0
          0.0039 -0.00845 0.0
          0.0026 -0.00845 0.0
          0.0013 -0.00845 0.0
          0 -0.00845 0.0
          0.039 -0.00975 0.0
          0.0377 -0.00975 0.0
          0.0364 -0.00975 0.0
          0.0351 -0.00975 0.0
          0.0338 -0.00975 0.0
          0.0325 -0.00975 0.0
          0.0312 -0.00975 0.0
          0.0299 -0.00975 0.0
          0.0286 -0.00975 0.0
          0.0273 -0.00975 0.0
          0.026 -0.00975 0.0
          0.0247 -0.00975 0.0
          0.0234 -0.00975 0.0
          0.0221 -0.00975 0.0
          0.0208 -0.00975 0.0
          0.0195 -0.00975 0.0
          0.0182 -0.00975 0.0
          0.0169 -0.00975 0.0
          0.0156 -0.00975 0.0
          0.0143 -0.00975 0.0
          0.013 -0.00975 0.0
          0.0117 -0.00975 0.0
          0.0104 -0.00975 0.0
          0.0091 -0.00975 0.0
          0.0078 -0.00975 0.0
          0.0065 -0.00975 0.0
          0.0052 -0.00975 0.0
          0.0039 -0.00975 0.0
          0.0026 -0.00975 0.0
          0.0013 -0.00975 0.0
          0 -0.00975 0.0
          0.039 -0.01105 0.0
          0.0377 -0.01105 0.0
          0.0364 -0.01105 0.0
          0.0351 -0.01105 0.0
          0.0338 -0.01105 0.0
          0.0325 -0.01105 0.0
          0.0312 -0.01105 0.0
          0.0299 -0.01105 0.0
          0.0286 -0.01105 0.0
          0.0273 -0.01105 0.0
          0.026 -0.01105 0.0
          0.0247 -0.01105 0.0
          0.0234 -0.01105 0.0
          0.0221 -0.01105 0.0
          0.0208 -0.01105 0.0
          0.0195 -0.01105 0.0
          0.0182 -0.01105 0.0
          0.0169 -0.01105 0.0
          0.0156 -0.01105 0.0
          0.0143 -0.01105 0.0
          0.013 -0.01105 0.0
          0.0117 -0.01105 0.0
          0.0104 -0.01105 0.0
          0.0091 -0.01105 0.0
          0.0078 -0.01105 0.0
          0.0065 -0.01105 0.0
          0.0052 -0.01105 0.0
          0.0039 -0.01105 0.0
          0.0026 -0.01105 0.0
          0.0013 -0.01105 0.0
          0 -0.01105 0.0
          0.039 -0.01235 0.0
          0.0377 -0.01235 0.0
          0.0364 -0.01235 0.0
          0.0351 -0.01235 0.0
          0.0338 -0.01235 0.0
          0.0325 -0.01235 0.0
          0.0312 -0.01235 0.0
          0.0299 -0.01235 0.0
          0.0286 -0.01235 0.0
          0.0273 -0.01235 0.0
          0.026 -0.01235 0.0
          0.0247 -0.01235 0.0
          0.0234 -0.01235 0.0
          0.0221 -0.01235 0.0
          0.0208 -0.01235 0.0
          0.0195 -0.01235 0.0
          0.0182 -0.01235 0.0
          0.0169 -0.01235 0.0
          0.0156 -0.01235 0.0
          0.0143 -0.01235 0.0
          0.013 -0.01235 0.0
          0.0117 -0.01235 0.0
          0.0104 -0.01235 0.0
          0.0091 -0.01235 0.0
          0.0078 -0.01235 0.0
          0.0065 -0.01235 0.0
          0.0052 -0.01235 0.0
          0.0039 -0.01235 0.0
          0.0026 -0.01235 0.0
          0.0013 -0.01235 0.0
          0 -0.01235 0.0
          0.039 -0.01365 0.0
          0.0377 -0.01365 0.0
          0.0364 -0.01365 0.0
          0.0351 -0.01365 0.0
          0.0338 -0.01365 0.0
          0.0325 -0.01365 0.0
          0.0312 -0.01365 0.0
          0.0299 -0.01365 0.0
          0.0286 -0.01365 0.0
          0.0273 -0.01365 0.0
          0.026 -0.01365 0.0
          0.0247 -0.01365 0.0
          0.0234 -0.01365 0.0
          0.0221 -0.01365 0.0
          0.0208 -0.01365 0.0
          0.0195 -0.01365 0.0
          0.0182 -0.01365 0.0
          0.0169 -0.01365 0.0
          0.0156 -0.01365 0.0
          0.0143 -0.01365 0.0
          0.013 -0.01365 0.0
          0.0117 -0.01365 0.0
          0.0104 -0.01365 0.0
          0.0091 -0.01365 0.0
          0.0078 -0.01365 0.0
          0.0065 -0.01365 0.0
          0.0052 -0.01365 0.0
          0.0039 -0.01365 0.0
          0.0026 -0.01365 0.0
          0.0013 -0.01365 0.0
          0 -0.01365 0.0
          0.039 -0.01495 0.0
          0.0377 -0.01495 0.0
          0.0364 -0.01495 0.0
          0.0351 -0.01495 0.0
          0.0338 -0.01495 0.0
          0.0325 -0.01495 0.0
          0.0312 -0.01495 0.0
          0.0299 -0.01495 0.0
          0.0286 -0.01495 0.0
          0.0273 -0.01495 0.0
          0.026 -0.01495 0.0
          0.0247 -0.01495 0.0
          0.0234 -0.01495 0.0