<?xml version="1.0"?>
<VTKFile type="UnstructuredGrid" version="0.1" byte_order="LittleEndian">
  <UnstructuredGrid>
    <Piece NumberOfPoints="961" NumberOfCells="900">
      <PointData Scalars="Temperature">
        <DataArray type="Float32" Name="Temperature" format="ascii">
          21.0334
          22.4673
          23.9525
          25.4347
          26.6794
          27.4975
          27.8086
          27.7835
          27.6713
          27.6787
          27.8197
          27.96
          27.9599
          27.8197
          27.6802
          27.682
          27.8247
          27.9674
          27.9696
          27.8324
          27.6958
          27.6949
          27.8158
          27.8586
          27.5868
          26.849
          25.7358
          24.4404
          23.1951
          22.0637
          21.0261
          22.4235
          80.1146
          141.992
          204.092
          257.894
          291.442
          303.176
          299.502
          293.213
          293.408
          300.685
          307.948
          307.943
          300.678
          293.444
          293.521
          300.892
          308.253
          308.34
          301.188
          294.099
          294.164
          300.805
          305.068
          294.818
          264.414
          216.063
          161.628
          109.568
          64.0957
          22.0364
          23.6967
          133.272
          252.349
          394.795
          510.463
          583.805
          595.42
          573.419
          548.786
          548.704
          573.978
          599.301
          599.296
          573.947
          548.666
          548.855
          574.416
          599.942
          600.028
          574.886
          549.96
          550.622
          575.854
          598.598
          588.453
          520.912
          415.961
          289.42
          189.263
          102.838
          22.9691
          24.7529
          177.162
          344.19
          544.218
          904.812
          904.852
          904.862
          904.845
          740.038
          739.552
          902.408
          902.429
          902.429
          902.408
          739.34
          739.618
          903.423
          903.443
          903.443
          903.423
          741.203
          742.503
          908.749
          908.767
          908.759
          908.721
          572.301
          395.928
          255.84
          135.54
          23.7588
          25.5202
          208.664
          405.559
          638.957
          904.976
          904.991
          905
          904.999
          852.052
          851.234
          902.567
          902.57
          902.57
          902.567
          850.867
          851.206
          903.58
          903.584
          903.584
          903.581
          853.093
          854.876
          908.901
          908.902
          908.895
          908.882
          672.03
          468.984
          305.277
          160.517
          24.3677
          26.0022
          227.74
          439.233
          666.032
          905.352
          905.365
          905.372
          905.373
          887.464
          886.649
          902.952
          902.953
          902.953
          902.952
          886.193
          886.531
          903.964
          903.965
          903.965
          903.964
          888.593
          890.371
          909.267
          909.266
          909.26
          909.249
          703.49
          511.487
          337.485
          177.701
          24.7929
          26.262
          237.696
          453.906
          677.164
          905.951
          905.963
          905.97
          905.972
          899.061
          898.252
          903.569
          903.57
          903.57
          903.569
          897.773
          898.11
          904.578
          904.579
          904.579
          904.579
          900.219
          901.986
          909.851
          909.85
          909.844
          909.834
          717.878
          532.51
          356.384
          188.416
          25.0633
          26.3887
          242.365
          460.637
          682.296
          906.772
          906.784
          906.791
          906.793
          903.346
          902.547
          904.419
          904.419
          904.419
          904.419
          902.066
          902.402
          905.423
          905.423
          905.423
          905.423
          904.513
          906.266
          910.653
          910.652
          910.646
          910.636
          725.269
          543.527
          366.781
          194.639
          25.2228
          26.4485
          244.612
          463.939
          685.044
          907.814
          907.826
          907.833
          907.835
          905.493
          904.706
          905.497
          905.497
          905.497
          905.497
          904.233
          904.567
          906.496
          906.496
          906.496
          906.496
          906.663
          908.397
          911.67
          911.669
          911.663
          911.654
          729.504
          549.587
          372.546
          198.141
          25.3134
          26.4802
          245.812
          465.801
          686.859
          909.075
          909.086
          909.093
          909.095
          907.122
          906.351
          906.803
          906.803
          906.803
          906.803
          905.89
          906.221
          907.795
          907.795
          907.795
          907.795
          908.293
          910.004
          912.9
          912.898
          912.893
          912.883
          732.263
          553.176
          375.874
          200.152
          25.3653
          26.5
          246.58
          467.093
          688.358
          910.55
          910.562
          910.569
          910.571
          908.74
          907.986
          908.332
          908.332
          908.332
          908.332
          907.54
          907.869
          909.315
          909.316
          909.316
          909.316
          909.911
          911.595
          914.339
          914.338
          914.332
          914.323
          734.351
          555.547
          377.957
          201.383
          25.397
          26.5154
          247.19
          468.196
          689.808
          912.237
          912.249
          912.256
          912.258
          910.501
          909.768
          910.08
          910.08
          910.08
          910.08
          909.34
          909.665
          911.055
          911.055
          911.055
          911.055
          911.673
          913.325
          915.985
          915.983
          915.977
          915.968
          736.173
          557.349
          379.429
          202.224
          25.4183
          26.5295
          247.762
          469.276
          691.325
          914.131
          914.143
          914.15
          914.152
          912.452
          911.743
          912.045
          912.045
          912.045
          912.045
          911.335
          911.657
          913.008
          913.009
          913.009
          913.009
          913.625
          915.241
          917.832
          917.83
          917.825
          917.815
          737.939
          558.917
          380.628
          202.883
          25.4349
          26.5439
          248.347
          470.405
          692.957
          916.228
          916.24
          916.247
          916.249
          914.604
          913.921
          914.22
          914.22
          914.22
          914.22
          913.535
          913.853
          915.172
          915.172
          915.172
          915.172
          915.777
          917.354
          919.876
          919.874
          919.869
          919.859
          739.758
          560.433
          381.732
          203.475
          25.4496
          26.5592
          248.969
          471.615
          694.726
          918.523
          918.535
          918.542
          918.544
          916.957
          916.302
          916.6
          916.6
          916.6
          916.6
          915.941
          916.254
          917.539
          917.539
          917.539
          917.539
          918.13
          919.663
          922.113
          922.111
          922.105
          922.096
          741.69
          561.997
          382.847
          204.063
          25.4641
          26.5757
          249.641
          472.924
          696.64
          921.01
          921.021
          921.028
          921.03
          919.505
          918.881
          919.18
          919.18
          919.18
          919.18
          918.547
          918.856
          920.105
          920.105
          920.105
          920.105
          920.679
          922.164
          924.536
          924.534
          924.528
          924.519
          743.777
          563.683
          384.046
          204.695
          25.4798
          26.5935
          250.375
          474.346
          698.709
          923.682
          923.694
          923.701
          923.703
          922.244
          921.654
          921.953
          921.953
          921.953
          921.953
          921.349
          921.652
          922.862
          922.862
          922.862
          922.862
          923.418
          924.852
          927.139
          927.137
          927.132
          927.122
          746.062
          565.563
          385.404
          205.417
          25.4975
          26.6147
          251.192
          475.912
          700.95
          926.534
          926.545
          926.552
          926.555
          925.167
          924.613
          924.912
          924.912
          924.912
          924.912
          924.338
          924.636
          925.805
          925.805
          925.805
          925.805
          926.34
          927.719
          929.916
          929.915
          929.909
          929.9
          748.609
          567.747
          387.031
          206.299
          25.5206
          26.6341
          252.142
          477.686
          703.407
          929.557
          929.569
          929.576
          929.578
          928.266
          927.75
          928.051
          928.051
          928.051
          928.051
          927.509
          927.801
          928.925
          928.925
          928.925
          928.925
          929.439
          930.759
          932.861
          932.859
          932.853
          932.844
          751.535
          570.428
          389.122
          207.466
          25.5458
          26.6809
          253.325
          479.821
          706.182
          932.746
          932.758
          932.765
          932.767
          931.534
          931.059
          931.36
          931.36
          931.36
          931.36
          930.852
          931.138
          932.216
          932.216
          932.216
          932.216
          932.707
          933.965
          935.965
          935.963
          935.957
          935.948
          755.058
          573.966
          392.048
          209.142
          25.6055
          26.6566
          255.023
          482.655
          709.518
          936.091
          936.103
          936.11
          936.112
          934.964
          934.531
          934.832
          934.832
          934.832
          934.832
          934.361
          934.64
          935.668
          935.668
          935.668
          935.668
          936.136
          937.327
          939.22
          939.218
          939.213
          939.204
          759.595
          579.053
          396.499
          211.8
          25.6055
          26.9992
          257.687
          487.019
          713.962
          939.586
          939.597
          939.604
          939.606
          938.548
          938.16
          938.459
          938.459
          938.459
          938.459
          938.027
          938.299
          939.273
          939.274
          939.274
          939.274
          939.718
          940.84
          942.619
          942.617
          942.612
          942.603
          765.939
          586.987
          403.855
          216.174
          25.9925
          26.0501
          263.118
          494.594
          720.82
          943.22
          943.231
          943.238
          943.24
          942.281
          941.939
          942.231
          942.231
          942.231
          942.231
          941.846
          942.11
          943.023
          943.023
          943.024
          943.024
          943.449
          944.498
          946.152
          946.151
          946.147
          946.139
          775.535
          600.274
          416.579
          224.45
          25.1109
          30.6878
          272.408
          510.086
          732.794
          946.986
          946.997
          947.003
          947.004
          946.168
          945.874
          946.139
          946.139
          946.14
          946.14
          945.821
          946.077
          946.907
          946.908
          946.909
          946.91
          947.331
          948.304
          949.809
          949.809
          949.808
          949.801
          790.976
          623.316
          440.344
          238.141
          29.8726
          13.8643
          300.68
          540.729
          756.618
          950.874
          950.883
          950.888
          950.889
          950.24
          949.996
          950.173
          950.174
          950.174
          950.175
          949.986
          950.231
          950.913
          950.916
          950.921
          950.923
          951.398
          952.287
          953.579
          953.582
          953.588
          953.585
          815.999
          664.783
          483.297
          272.769
          13.1447
          85.4449
          336.195
          616.55
          801.505
          954.875
          954.882
          954.884
          954.884
          954.621
          954.429
          954.322
          954.323
          954.326
          954.327
          954.463
          954.694
          955.027
          955.036
          955.051
          955.06
          955.769
          956.562
          957.439
          957.454
          957.48
          957.491
          854.308
          735.233
          575.963
          316.642
          85.1696
          -191.183
          562.876
          761.119
          873.649
          958.981
          958.982
          958.977
          958.976
          959.724
          959.59
          958.573
          958.576
          958.586
          958.59
          959.678
          959.876
          959.226
          959.246
          959.302
          959.322
          960.866
          961.51
          961.358
          961.394
          961.496
          961.53
          906.823
          840.389
          741.393
          553.994
          -192.166
          962.969
          965.777
          966.773
          966.611
          964.027
          962.753
          962.742
          963.981
          966.451
          966.404
          963.781
          962.484
          962.503
          963.846
          966.563
          966.689
          964.289
          963.105
          963.214
          964.665
          967.615
          967.98
          965.988
          964.997
          965.195
          966.678
          969.734
          970.448
          970.238
          969.059
          966.191
          964.624
          966.465
          967.343
          967.22
          966.595
          965.984
          965.97
          966.544
          967.11
          967.067
          966.434
          965.822
          965.85
          966.523
          967.228
          967.35
          966.868
          966.396
          966.551
          967.375
          968.262
          968.612
          968.353
          968.069
          968.348
          969.271
          970.287
          970.914
          970.714
          969.693
          967.802
          967.023
          968.014
          968.572
          968.708
          968.535
          968.339
          968.33
          968.512
          968.687
          968.662
          968.444
          968.245
          968.276
          968.537
          968.825
          968.93
          968.849
          968.786
          968.955
          969.367
          969.825
          970.114
          970.214
          970.31
          970.608
          971.122
          971.66
          971.934
          971.756
          971.118
          970.096
          968.502
          968.672
          969.129
          969.307
          969.26
          969.16
          969.154
          969.25
          969.34
          969.32
          969.195
          969.089
          969.12
          969.29
          969.484
          969.585
          969.591
          969.619
          969.789
          970.109
          970.466
          970.74
          970.914
          971.094
          971.39
          971.807
          972.206
          972.389
          972.218
          971.721
          971.53
        </DataArray>
      </PointData>
      <CellData>
      </CellData>
      <Points>
        <DataArray type="Float32" NumberOfComponents="3" format="ascii">
          0.1 0.005 0.0
          0.0966667 0.005 0.0
          0.0933333 0.005 0.0
          0.09 0.005 0.0
          0.0866667 0.005 0.0
          0.0833333 0.005 0.0
          0.08 0.005 0.0
          0.0766667 0.005 0.0
          0.0733333 0.005 0.0
          0.07 0.005 0.0
          0.0666667 0.005 0.0
          0.0633333 0.005 0.0
          0.06 0.005 0.0
          0.0566667 0.005 0.0
          0.0533333 0.005 0.0
          0.05 0.005 0.0
          0.0466667 0.005 0.0
          0.0433333 0.005 0.0
          0.04 0.005 0.0
          0.0366667 0.005 0.0
          0.0333333 0.005 0.0
          0.03 0.005 0.0
          0.0266667 0.005 0.0
          0.0233333 0.005 0.0
          0.02 0.005 0.0
          0.0166667 0.005 0.0
          0.0133333 0.005 0.0
          0.01 0.005 0.0
          0.00666667 0.005 0.0
          0.00333333 0.005 0.0
          0 0.005 0.0
          0.1 0.00166667 0.0
          0.0966667 0.00166667 0.0
          0.0933333 0.00166667 0.0
          0.09 0.00166667 0.0
          0.0866667 0.00166667 0.0
          0.0833333 0.00166667 0.0
          0.08 0.00166667 0.0
          0.0766667 0.00166667 0.0
          0.0733333 0.00166667 0.0
          0.07 0.00166667 0.0
          0.0666667 0.00166667 0.0
          0.0633333 0.00166667 0.0
          0.06 0.00166667 0.0
          0.0566667 0.00166667 0.0
          0.0533333 0.00166667 0.0
          0.05 0.00166667 0.0
          0.0466667 0.00166667 0.0
          0.0433333 0.00166667 0.0
          0.04 0.00166667 0.0
          0.0366667 0.00166667 0.0
          0.0333333 0.00166667 0.0
          0.03 0.00166667 0.0
          0.0266667 0.00166667 0.0
          0.0233333 0.00166667 0.0
          0.02 0.00166667 0.0
          0.0166667 0.00166667 0.0
          0.0133333 0.00166667 0.0
          0.01 0.00166667 0.0
          0.00666667 0.00166667 0.0
          0.00333333 0.00166667 0.0
          0 0.00166667 0.0
          0.1 -0.00166667 0.0
          0.0966667 -0.00166667 0.0
          0.0933333 -0.00166667 0.0
          0.09 -0.00166667 0.0
          0.0866667 -0.00166667 0.0
          0.0833333 -0.00166667 0.0
          0.08 -0.00166667 0.0
          0.0766667 -0.00166667 0.0
          0.0733333 -0.00166667 0.0
          0.07 -0.00166667 0.0
          0.0666667 -0.00166667 0.0
          0.0633333 -0.00166667 0.0
          0.06 -0.00166667 0.0
          0.0566667 -0.00166667 0.0
          0.0533333 -0.00166667 0.0
          0.05 -0.00166667 0.0
          0.0466667 -0.00166667 0.0
          0.0433333 -0.00166667 0.0
          0.04 -0.00166667 0.0
          0.0366667 -0.00166667 0.0
          0.0333333 -0.00166667 0.0
          0.03 -0.00166667 0.0
          0.0266667 -0.00166667 0.0
          0.0233333 -0.00166667 0.0
          0.02 -0.00166667 0.0
          0.0166667 -0.00166667 0.0
          0.0133333 -0.00166667 0.0
          0.01 -0.00166667 0.0
          0.00666667 -0.00166667 0.0
          0.00333333 -0.00166667 0.0
          0 -0.00166667 0.0
          0.1 -0.005 0.0
          0.0966667 -0.005 0.0
          0.0933333 -0.005 0.0
          0.09 -0.005 0.0
          0.0866667 -0.005 0.0
          0.0833333 -0.005 0.0
          0.08 -0.005 0.0
          0.0766667 -0.005 0.0
          0.0733333 -0.005 0.0
          0.07 -0.005 0.0
          0.0666667 -0.005 0.0
          0.0633333 -0.005 0.0
          0.06 -0.005 0.0
          0.0566667 -0.005 0.0
          0.0533333 -0.005 0.0
          0.05 -0.005 0.0
          0.0466667 -0.005 0.0
          0.0433333 -0.005 0.0
          0.04 -0.005 0.0
          0.0366667 -0.005 0.0
          0.0333333 -0.005 0.0
          0.03 -0.005 0.0
          0.0266667 -0.005 0.0
          0.0233333 -0.005 0.0
          0.02 -0.005 0.0
          0.0166667 -0.005 0.0
          0.0133333 -0.005 0.0
          0.01 -0.005 0.0
          0.00666667 -0.005 0.0
          0.00333333 -0.005 0.0
          0 -0.005 0.0
          0.1 -0.00833333 0.0
          0.0966667 -0.00833333 0.0
          0.0933333 -0.00833333 0.0
          0.09 -0.00833333 0.0
          0.0866667 -0.00833333 0.0
          0.0833333 -0.00833333 0.0
          0.08 -0.00833333 0.0
          0.0766667 -0.00833333 0.0
          0.0733333 -0.00833333 0.0
          0.07 -0.00833333 0.0
          0.0666667 -0.00833333 0.0
          0.0633333 -0.00833333 0.0
          0.06 -0.00833333 0.0
          0.0566667 -0.00833333 0.0
          0.0533333 -0.00833333 0.0
          0.05 -0.00833333 0.0
          0.0466667 -0.00833333 0.0
          0.0433333 -0.00833333 0.0
          0.04 -0.00833333 0.0
          0.0366667 -0.00833333 0.0
          0.0333333 -0.00833333 0.0
          0.03 -0.00833333 0.0
          0.0266667 -0.00833333 0.0
          0.0233333 -0.00833333 0.0
          0.02 -0.00833333 0.0
          0.0166667 -0.00833333 0.0
          0.0133333 -0.00833333 0.0
          0.01 -0.00833333 0.0
          0.00666667 -0.00833333 0.0
          0.00333333 -0.00833333 0.0
          0 -0.00833333 0.0
          0.1 -0.0116667 0.0
          0.0966667 -0.0116667 0.0
          0.0933333 -0.0116667 0.0
          0.09 -0.0116667 0.0
          0.0866667 -0.0116667 0.0
          0.0833333 -0.0116667 0.0
          0.08 -0.0116667 0.0
          0.0766667 -0.0116667 0.0
          0.0733333 -0.0116667 0.0
          0.07 -0.0116667 0.0
          0.0666667 -0.0116667 0.0
          0.0633333 -0.0116667 0.0
          0.06 -0.0116667 0.0
          0.0566667 -0.0116667 0.0
          0.0533333 -0.0116667 0.0
          0.05 -0.0116667 0.0
          0.0466667 -0.0116667 0.0
          0.0433333 -0.0116667 0.0
          0.04 -0.0116667 0.0
          0.0366667 -0.0116667 0.0
          0.0333333 -0.0116667 0.0
          0.03 -0.0116667 0.0
          0.0266667 -0.0116667 0.0
          0.0233333 -0.0116667 0.0
          0.02 -0.0116667 0.0
          0.0166667 -0.0116667 0.0
          0.0133333 -0.0116667 0.0
          0.01 -0.0116667 0.0
          0.00666667 -0.0116667 0.0
          0.00333333 -0.0116667 0.0
          0 -0.0116667 0.0
          0.1 -0.015 0.0
          0.0966667 -0.015 0.0
          0.0933333 -0.015 0.0
          0.09 -0.015 0.0
          0.0866667 -0.015 0.0
          0.0833333 -0.015 0.0
          0.08 -0.015 0.0
          0.0766667 -0.015 0.0
          0.0733333 -0.015 0.0
          0.07 -0.015 0.0
          0.0666667 -0.015 0.0
          0.0633333 -0.015 0.0
          0.06 -0.015 0.0
          0.0566667 -0.015 0.0
          0.0533333 -0.015 0.0
          0.05 -0.015 0.0
          0.0466667 -0.015 0.0
          0.0433333 -0.015 0.0
          0.04 -0.015 0.0
          0.0366667 -0.015 0.0
          0.0333333 -0.015 0.0
          0.03 -0.015 0.0
          0.0266667 -0.015 0.0
          0.0233333 -0.015 0.0
          0.02 -0.015 0.0
          0.0166667 -0.015 0.0
          0.0133333 -0.015 0.0
          0.01 -0.015 0.0
          0.00666667 -0.015 0.0
          0.00333333 -0.015 0.0
          0 -0.015 0.0
          0.1 -0.0183333 0.0
          0.0966667 -0.0183333 0.0
          0.0933333 -0.0183333 0.0
          0.09 -0.0183333 0.0
          0.0866667 -0.0183333 0.0
          0.0833333 -0.0183333 0.0
          0.08 -0.0183333 0.0
          0.0766667 -0.0183333 0.0
          0.0733333 -0.0183333 0.0
          0.07 -0.0183333 0.0
          0.0666667 -0.0183333 0.0
          0.0633333 -0.0183333 0.0
          0.06 -0.0183333 0.0
          0.0566667 -0.0183333 0.0
          0.0533333 -0.0183333 0.0
          0.05 -0.0183333 0.0
          0.0466667 -0.0183333 0.0
          0.0433333 -0.0183333 0.0
          0.04 -0.0183333 0.0
          0.0366667 -0.0183333 0.0
          0.0333333 -0.0183333 0.0
          0.03 -0.0183333 0.0
          0.0266667 -0.0183333 0.0
          0.0233333 -0.0183333 0.0
          0.02 -0.0183333 0.0
          0.0166667 -0.0183333 0.0
          0.0133333 -0.0183333 0.0
          0.01 -0.0183333 0.0
          0.00666667 -0.0183333 0.0
          0.00333333 -0.0183333 0.0
          0 -0.0183333 0.0
          0.1 -0.0216667 0.0
          0.0966667 -0.0216667 0.0
          0.0933333 -0.0216667 0.0
          0.09 -0.0216667 0.0
          0.0866667 -0.0216667 0.0
          0.0833333 -0.0216667 0.0
          0.08 -0.0216667 0.0
          0.0766667 -0.0216667 0.0
          0.0733333 -0.0216667 0.0
          0.07 -0.0216667 0.0
          0.0666667 -0.0216667 0.0
          0.0633333 -0.0216667 0.0
          0.06 -0.0216667 0.0
          0.0566667 -0.0216667 0.0
          0.0533333 -0.0216667 0.0
          0.05 -0.0216667 0.0
          0.0466667 -0.0216667 0.0
          0.0433333 -0.0216667 0.0
          0.04 -0.0216667 0.0
          0.0366667 -0.0216667 0.0
          0.0333333 -0.0216667 0.0
          0.03 -0.0216667 0.0
          0.0266667 -0.0216667 0.0
          0.0233333 -0.0216667 0.0
          0.02 -0.0216667 0.0
          0.0166667 -0.0216667 0.0
          0.0133333 -0.0216667 0.0
          0.01 -0.0216667 0.0
          0.00666667 -0.0216667 0.0
          0.00333333 -0.0216667 0.0
          0 -0.0216667 0.0
          0.1 -0.025 0.0
          0.0966667 -0.025 0.0
          0.0933333 -0.025 0.0
          0.09 -0.025 0.0
          0.0866667 -0.025 0.0
          0.0833333 -0.025 0.0
          0.08 -0.025 0.0
          0.0766667 -0.025 0.0
          0.0733333 -0.025 0.0
          0.07 -0.025 0.0
          0.0666667 -0.025 0.0
          0.0633333 -0.025 0.0
          0.06 -0.025 0.0
          0.0566667 -0.025 0.0
          0.0533333 -0.025 0.0
          0.05 -0.025 0.0
          0.0466667 -0.025 0.0
          0.0433333 -0.025 0.0
          0.04 -0.025 0.0
          0.0366667 -0.025 0.0
          0.0333333 -0.025 0.0
          0.03 -0.025 0.0
          0.0266667 -0.025 0.0
          0.0233333 -0.025 0.0
          0.02 -0.025 0.0
          0.0166667 -0.025 0.0
          0.0133333 -0.025 0.0
          0.01 -0.025 0.0
          0.00666667 -0.025 0.0
          0.00333333 -0.025 0.0
          0 -0.025 0.0
          0.1 -0.0283333 0.0
          0.0966667 -0.0283333 0.0
          0.0933333 -0.0283333 0.0
          0.09 -0.0283333 0.0
          0.0866667 -0.0283333 0.0
          0.0833333 -0.0283333 0.0
          0.08 -0.0283333 0.0
          0.0766667 -0.0283333 0.0
          0.0733333 -0.0283333 0.0
          0.07 -0.0283333 0.0
          0.0666667 -0.0283333 0.0
          0.0633333 -0.0283333 0.0
          0.06 -0.0283333 0.0
          0.0566667 -0.0283333 0.0
          0.0533333 -0.0283333 0.0
          0.05 -0.0283333 0.0
          0.0466667 -0.0283333 0.0
          0.0433333 -0.0283333 0.0
          0.04 -0.0283333 0.0
          0.0366667 -0.0283333 0.0
          0.0333333 -0.0283333 0.0
          0.03 -0.0283333 0.0
          0.0266667 -0.0283333 0.0
          0.0233333 -0.0283333 0.0
          0.02 -0.0283333 0.0
          0.0166667 -0.0283333 0.0
          0.0133333 -0.0283333 0.0
          0.01 -0.0283333 0.0
          0.00666667 -0.0283333 0.0
          0.00333333 -0.0283333 0.0
          0 -0.0283333 0.0
          0.1 -0.0316667 0.0
          0.0966667 -0.0316667 0.0
          0.0933333 -0.0316667 0.0
          0.09 -0.0316667 0.0
          0.0866667 -0.0316667 0.0
          0.0833333 -0.0316667 0.0
          0.08 -0.0316667 0.0
          0.0766667 -0.0316667 0.0
          0.0733333 -0.0316667 0.0
          0.07 -0.0316667 0.0
          0.0666667 -0.0316667 0.0
          0.0633333 -0.0316667 0.0
          0.06 -0.0316667 0.0
          0.0566667 -0.0316667 0.0
          0.0533333 -0.0316667 0.0
          0.05 -0.0316667 0.0
          0.0466667 -0.0316667 0.0
          0.0433333 -0.0316667 0.0
          0.04 -0.0316667 0.0
          0.0366667 -0.0316667 0.0
          0.0333333 -0.0316667 0.0
          0.03 -0.0316667 0.0
          0.0266667 -0.0316667 0.0
          0.0233333 -0.0316667 0.0
          0.02 -0.0316667 0.0
          0.0166667 -0.0316667 0.0
          0.0133333 -0.0316667 0.0
          0.01 -0.0316667 0.0
          0.00666667 -0.0316667 0.0
          0.00333333 -0.0316667 0.0
          0 -0.0316667 0.0
          0.1 -0.035 0.0
          0.0966667 -0.035 0.0
          0.0933333 -0.035 0.0
          0.09 -0.035 0.0
          0.0866667 -0.035 0.0
          0.0833333 -0.035 0.0
          0.08 -0.035 0.0
          0.0766667 -0.035 0.0
          0.0733333 -0.035 0.0
          0.07 -0.035 0.0
          0.0666667 -0.035 0.0
          0.0633333 -0.035 0.0
          0.06 -0.035 0.0
          0.0566667 -0.035 0.0
          0.0533333 -0.035 0.0
          0.05 -0.035 0.0
          0.0466667 -0.035 0.0