<?xml version="1.0"?>
<VTKFile type="UnstructuredGrid" version="0.1" byte_order="LittleEndian">
  <UnstructuredGrid>
    <Piece NumberOfPoints="961" NumberOfCells="900">
      <PointData Scalars="Temperature">
        <DataArray type="Float32" Name="Temperature" format="ascii">
          21
          21.0022
          21.0045
          21.0069
          21.0091
          21.0107
          21.0118
          21.013
          21.0149
          21.0176
          21.0205
          21.0225
          21.0232
          21.023
          21.0227
          21.0231
          21.0241
          21.0248
          21.0242
          21.0222
          21.0193
          21.0166
          21.0148
          21.0136
          21.0125
          21.0107
          21.0084
          21.0058
          21.0036
          21.0017
          21
          21.0021
          21.0874
          21.1845
          21.2882
          21.3839
          21.4499
          21.4915
          21.5329
          21.6117
          21.7295
          21.8587
          21.9475
          21.9745
          21.955
          21.9364
          21.9537
          22.0025
          22.0401
          22.02
          21.9309
          21.7999
          21.6826
          21.6066
          21.5675
          21.5247
          21.4533
          21.35
          21.2409
          21.1441
          21.0677
          21.0016
          21.004
          21.1679
          21.3582
          21.6112
          21.8257
          21.9725
          22.0136
          22.0564
          22.1865
          22.4916
          22.8047
          23.0294
          23.0561
          22.954
          22.8615
          22.9062
          23.0637
          23.2041
          23.1843
          22.9527
          22.6316
          22.3276
          22.2072
          22.1738
          22.1315
          21.9702
          21.7366
          21.4666
          21.2767
          21.1297
          21.0031
          21.0056
          21.2375
          21.5106
          21.876
          22.6221
          22.6222
          22.6222
          22.6222
          22.6387
          23.0961
          24.3424
          24.3426
          24.3426
          24.3425
          23.59
          23.6572
          24.5957
          24.5958
          24.5958
          24.5956
          23.2907
          22.8349
          22.882
          22.882
          22.882
          22.8819
          22.053
          21.6645
          21.3922
          21.1842
          21.0044
          21.0069
          21.2915
          21.6203
          22.0601
          22.6337
          22.6338
          22.6338
          22.6338
          22.9255
          23.4932
          24.3622
          24.3622
          24.3623
          24.3622
          24.0578
          24.1413
          24.6166
          24.6167
          24.6167
          24.6166
          23.7226
          23.157
          22.8951
          22.8951
          22.895
          22.895
          22.2736
          21.8098
          21.4844
          21.2289
          21.0055
          21.0079
          21.33
          21.6926
          22.1305
          22.6686
          22.6686
          22.6686
          22.6686
          23.0659
          23.6414
          24.4211
          24.4212
          24.4212
          24.4212
          24.2548
          24.3395
          24.6792
          24.6793
          24.6792
          24.6792
          23.8849
          23.3116
          22.9343
          22.9342
          22.9342
          22.9342
          22.362
          21.9088
          21.5535
          21.2642
          21.0063
          21.0086
          21.3588
          21.7424
          22.1894
          22.7268
          22.7269
          22.7269
          22.7269
          23.1653
          23.7543
          24.5195
          24.5195
          24.5196
          24.5196
          24.3951
          24.4818
          24.7837
          24.7837
          24.7837
          24.7836
          24.0073
          23.421
          22.9998
          22.9997
          22.9997
          22.9997
          22.4358
          21.9796
          21.6075
          21.2928
          21.007
          21.0092
          21.3845
          21.7902
          22.2554
          22.8089
          22.809
          22.809
          22.809
          23.2724
          23.88
          24.6577
          24.6577
          24.6577
          24.6577
          24.5461
          24.6356
          24.9304
          24.9304
          24.9304
          24.9303
          24.143
          23.5385
          23.092
          23.092
          23.0919
          23.0919
          22.5167
          22.0467
          21.6559
          21.3183
          21.0076
          21.0099
          21.4121
          21.844
          22.335
          22.9154
          22.9155
          22.9155
          22.9155
          23.4021
          24.0339
          24.8362
          24.8362
          24.8362
          24.8362
          24.7287
          24.8219
          25.1198
          25.1198
          25.1198
          25.1197
          24.3086
          23.6808
          23.2116
          23.2116
          23.2115
          23.2115
          22.6128
          22.1203
          21.7062
          21.3442
          21.0083
          21.0107
          21.4439
          21.9073
          22.4312
          23.047
          23.047
          23.0471
          23.0471
          23.5597
          24.2208
          25.0556
          25.0557
          25.0557
          25.0557
          24.9499
          25.0475
          25.3526
          25.3526
          25.3526
          25.3525
          24.5098
          23.8535
          23.3592
          23.3592
          23.3592
          23.3591
          22.7279
          22.2055
          21.7628
          21.3728
          21.009
          21.0116
          21.4812
          21.9821
          22.5456
          23.2045
          23.2046
          23.2046
          23.2046
          23.7473
          24.4429
          25.3168
          25.3168
          25.3168
          25.3168
          25.2121
          25.3151
          25.6295
          25.6295
          25.6295
          25.6295
          24.7488
          24.059
          23.5358
          23.5358
          23.5358
          23.5357
          22.864
          22.3049
          21.8281
          21.4054
          21.0098
          21.0127
          21.5247
          22.0694
          22.6794
          23.389
          23.3891
          23.3891
          23.3891
          23.9663
          24.7017
          25.6205
          25.6206
          25.6206
          25.6206
          25.517
          25.626
          25.9515
          25.9515
          25.9515
          25.9514
          25.027
          24.2986
          23.7424
          23.7424
          23.7423
          23.7423
          23.0227
          22.4202
          21.9035
          21.443
          21.0107
          21.0139
          21.5748
          22.1699
          22.8336
          23.6016
          23.6016
          23.6017
          23.6017
          24.2179
          24.9983
          25.9678
          25.9679
          25.9679
          25.9679
          25.8658
          25.9817
          26.3194
          26.3194
          26.3194
          26.3194
          25.3456
          24.5737
          23.9802
          23.9801
          23.9801
          23.9801
          23.2053
          22.5528
          21.99
          21.4861
          21.0117
          21.0153
          21.6319
          22.2846
          23.0093
          23.8435
          23.8435
          23.8436
          23.8436
          24.5034
          25.334
          26.3598
          26.3598
          26.3599
          26.3599
          26.2596
          26.3832
          26.7344
          26.7344
          26.7344
          26.7344
          25.706
          24.8857
          24.2504
          24.2504
          24.2504
          24.2503
          23.413
          22.7037
          22.0885
          21.5352
          21.0129
          21.0168
          21.6964
          22.4141
          23.2076
          24.1161
          24.1162
          24.1162
          24.1163
          24.8242
          25.71
          26.7975
          26.7976
          26.7976
          26.7976
          26.6997
          26.8318
          27.1976
          27.1976
          27.1976
          27.1975
          26.1094
          25.2359
          24.5546
          24.5546
          24.5545
          24.5545
          23.6472
          22.8742
          22.2
          21.5908
          21.0143
          21.0186
          21.7689
          22.5593
          23.4296
          24.4209
          24.421
          24.4211
          24.4211
          25.1817
          26.1277
          27.2822
          27.2823
          27.2823
          27.2823
          27.1874
          27.3288
          27.7101
          27.7102
          27.7101
          27.7101
          26.5572
          25.6258
          24.8942
          24.8942
          24.8941
          24.8941
          23.9095
          23.0655
          22.3253
          21.6534
          21.0158
          21.0205
          21.8498
          22.7212
          23.6768
          24.7596
          24.7597
          24.7597
          24.7598
          25.5776
          26.5885
          27.8151
          27.8152
          27.8153
          27.8153
          27.724
          27.8754
          28.2733
          28.2733
          28.2732
          28.2732
          27.0508
          26.057
          25.2709
          25.2709
          25.2708
          25.2708
          24.2013
          23.2792
          22.4657
          21.7237
          21.0175
          21.0227
          21.9397
          22.901
          23.9506
          25.1338
          25.1338
          25.1339
          25.134
          26.0134
          27.094
          28.3976
          28.3976
          28.3977
          28.3977
          28.3109
          28.4732
          28.8882
          28.8882
          28.8882
          28.8881
          27.5917
          26.5312
          25.6865
          25.6864
          25.6864
          25.6863
          24.5248
          23.5172
          22.6228
          21.8026
          21.0194
          21.0251
          22.0395
          23.1
          24.2527
          25.5452
          25.5452
          25.5453
          25.5454
          26.4908
          27.6456
          29.0307
          29.0308
          29.0308
          29.0309
          28.9494
          29.1233
          29.5562
          29.5562
          29.5561
          29.5561
          28.1815
          27.0501
          26.1427
          26.1426
          26.1425
          26.1424
          24.8825
          23.7825
          22.7991
          21.8916
          21.0215
          21.028
          22.1507
          23.3206
          24.5854
          25.9956
          25.9957
          25.9958
          25.9959
          27.0116
          28.2449
          29.7158
          29.7159
          29.7161
          29.7161
          29.6412
          29.8275
          30.2785
          30.2784
          30.2783
          30.2782
          28.8217
          27.6154
          26.6414
          26.6413
          26.6411
          26.641
          25.2779
          24.0795
          22.9989
          21.9932
          21.0242
          21.0304
          22.276
          23.5667
          24.9523
          26.4869
          26.4871
          26.4873
          26.4875
          27.5775
          28.8933
          30.454
          30.4542
          30.4546
          30.4547
          30.3881
          30.5875
          31.0562
          31.0562
          31.0559
          31.0558
          29.5139
          28.2291
          27.1845
          27.1844
          27.1841
          27.1839
          25.7167
          24.4161
          23.2296
          22.1123
          21.0264
          21.0367
          22.42
          23.8465
          25.3595
          27.0208
          27.0212
          27.0218
          27.0222
          28.1905
          29.5925
          31.2463
          31.2468
          31.2477
          31.2481
          31.193
          31.4061
          31.8909
          31.8906
          31.89
          31.8896
          30.2599
          28.8934
          27.7743
          27.7739
          27.7732
          27.7727
          26.2079
          24.8062
          23.5057
          22.2568
          21.0329
          21.0301
          22.6
          24.1762
          25.82
          27.5986
          27.5996
          27.6015
          27.6025
          28.8531
          30.3438
          32.0929
          32.0943
          32.0969
          32.0982
          32.0618
          32.2892
          32.784
          32.783
          32.7811
          32.7801
          31.0621
          29.6117
          28.4132
          28.4121
          28.41
          28.4089
          26.7673
          25.2765
          23.8532
          22.4497
          21.0259
          21.0801
          22.8261
          24.6014
          26.3594
          28.2204
          28.2234
          28.2292
          28.2322
          29.5701
          31.1496
          32.9921
          32.9964
          33.0047
          33.0089
          33.0088
          33.2506
          33.7384
          33.7354
          33.7295
          33.7264
          31.9252
          30.3909
          29.1055
          29.1021
          29.0954
          29.092
          27.4223
          25.8741
          24.3338
          22.7076
          21.0802
          20.9137
          23.2504
          25.1935
          27.0417
          28.8824
          28.8914
          28.9099
          28.9189
          30.3536
          32.0141
          33.9364
          33.9496
          33.9765
          33.9895
          34.0715
          34.3264
          34.761
          34.7518
          34.7327
          34.7234
          32.8601
          31.2491
          29.8594
          29.8491
          29.8278
          29.8175
          28.2112
          26.6953
          25.0388
          23.2006
          20.9015
          21.6396
          23.7589
          26.2605
          27.9567
          29.5663
          29.5974
          29.6536
          29.6847
          31.2404
          32.9538
          34.8977
          34.9428
          35.0249
          35.0699
          35.3475
          35.6108
          35.8732
          35.8412
          35.7831
          35.7511
          33.9001
          32.2375
          30.7
          30.6644
          30.5998
          30.5641
          29.1735
          27.8681
          26.313
          23.8085
          21.686
          18.8526
          26.2227
          28.0774
          29.1814
          30.2269
          30.3004
          30.5047
          30.5783
          32.3796
          34.0021
          35.8071
          35.9154
          36.212
          36.3203
          37.0988
          37.3466
          37.1245
          37.0481
          36.8376
          36.7611
          35.1206
          33.5393
          31.6832
          31.5985
          31.3641
          31.2795
          30.3329
          29.5038
          28.4465
          26.5463
          18.6816
          30.505
          30.5631
          30.6585
          30.7834
          30.7947
          30.9104
          31.3115
          32.1635
          34.0473
          35.3548
          36.3543
          36.8336
          37.4298
          38.3384
          39.8148
          40.0059
          38.9694
          38.2792
          37.8597
          37.561
          36.7909
          35.4813
          33.4364
          32.4873
          32.0253
          31.8658
          31.7842
          31.5896
          31.4286
          31.3169
          31.2524
          30.5193
          30.5689
          30.6692
          30.8088
          31.0146
          31.3544
          31.9421
          32.9049
          34.1319
          35.4807
          36.6944
          37.7548
          38.6812
          39.5632
          40.2129
          40.4037
          40.108
          39.551
          38.9198
          38.1041
          37.0069
          35.6237
          34.2722
          33.1877
          32.507
          32.0892
          31.8109
          31.6
          31.4328
          31.3209
          31.2665
          30.5375
          30.5811
          30.689
          30.872
          31.1591
          31.6033
          32.2692
          33.1898
          34.3559
          35.7329
          37.3514
          38.8714
          40.0027
          40.8372
          41.3712
          41.5525
          41.3797
          40.9079
          40.1697
          39.111
          37.5985
          35.9683
          34.6172
          33.5564
          32.7795
          32.244
          31.8767
          31.6195
          31.4408
          31.3292
          31.2834
          30.5501
          30.5867
          30.6996
          30.8973
          31.2098
          31.6833
          32.3648
          33.2827
          34.4404
          35.8588
          37.727
          39.5162
          40.7161
          41.5552
          42.0701
          42.2511
          42.1003
          41.6397
          40.8721
          39.7284
          37.9649
          36.1106
          34.7348
          33.6659
          32.8679
          32.2987
          31.9033
          31.6299
          31.4448
          31.3329
          31.2957
        </DataArray>
      </PointData>
      <CellData>
      </CellData>
      <Points>
        <DataArray type="Float32" NumberOfComponents="3" format="ascii">
          0.1 0.005 0.0
          0.0966667 0.005 0.0
          0.0933333 0.005 0.0
          0.09 0.005 0.0
          0.0866667 0.005 0.0
          0.0833333 0.005 0.0
          0.08 0.005 0.0
          0.0766667 0.005 0.0
          0.0733333 0.005 0.0
          0.07 0.005 0.0
          0.0666667 0.005 0.0
          0.0633333 0.005 0.0
          0.06 0.005 0.0
          0.0566667 0.005 0.0
          0.0533333 0.005 0.0
          0.05 0.005 0.0
          0.0466667 0.005 0.0
          0.0433333 0.005 0.0
          0.04 0.005 0.0
          0.0366667 0.005 0.0
          0.0333333 0.005 0.0
          0.03 0.005 0.0
          0.0266667 0.005 0.0
          0.0233333 0.005 0.0
          0.02 0.005 0.0
          0.0166667 0.005 0.0
          0.0133333 0.005 0.0
          0.01 0.005 0.0
          0.00666667 0.005 0.0
          0.00333333 0.005 0.0
          0 0.005 0.0
          0.1 0.00166667 0.0
          0.0966667 0.00166667 0.0
          0.0933333 0.00166667 0.0
          0.09 0.00166667 0.0
          0.0866667 0.00166667 0.0
          0.0833333 0.00166667 0.0
          0.08 0.00166667 0.0
          0.0766667 0.00166667 0.0
          0.0733333 0.00166667 0.0
          0.07 0.00166667 0.0
          0.0666667 0.00166667 0.0
          0.0633333 0.00166667 0.0
          0.06 0.00166667 0.0
          0.0566667 0.00166667 0.0
          0.0533333 0.00166667 0.0
          0.05 0.00166667 0.0
          0.0466667 0.00166667 0.0
          0.0433333 0.00166667 0.0
          0.04 0.00166667 0.0
          0.0366667 0.00166667 0.0
          0.0333333 0.00166667 0.0
          0.03 0.00166667 0.0
          0.0266667 0.00166667 0.0
          0.0233333 0.00166667 0.0
          0.02 0.00166667 0.0
          0.0166667 0.00166667 0.0
          0.0133333 0.00166667 0.0
          0.01 0.00166667 0.0
          0.00666667 0.00166667 0.0
          0.00333333 0.00166667 0.0
          0 0.00166667 0.0
          0.1 -0.00166667 0.0
          0.0966667 -0.00166667 0.0
          0.0933333 -0.00166667 0.0
          0.09 -0.00166667 0.0
          0.0866667 -0.00166667 0.0
          0.0833333 -0.00166667 0.0
          0.08 -0.00166667 0.0
          0.0766667 -0.00166667 0.0
          0.0733333 -0.00166667 0.0
          0.07 -0.00166667 0.0
          0.0666667 -0.00166667 0.0
          0.0633333 -0.00166667 0.0
          0.06 -0.00166667 0.0
          0.0566667 -0.00166667 0.0
          0.0533333 -0.00166667 0.0
          0.05 -0.00166667 0.0
          0.0466667 -0.00166667 0.0
          0.0433333 -0.00166667 0.0
          0.04 -0.00166667 0.0
          0.0366667 -0.00166667 0.0
          0.0333333 -0.00166667 0.0
          0.03 -0.00166667 0.0
          0.0266667 -0.00166667 0.0
          0.0233333 -0.00166667 0.0
          0.02 -0.00166667 0.0
          0.0166667 -0.00166667 0.0
          0.0133333 -0.00166667 0.0
          0.01 -0.00166667 0.0
          0.00666667 -0.00166667 0.0
          0.00333333 -0.00166667 0.0
          0 -0.00166667 0.0
          0.1 -0.005 0.0
          0.0966667 -0.005 0.0
          0.0933333 -0.005 0.0
          0.09 -0.005 0.0
          0.0866667 -0.005 0.0
          0.0833333 -0.005 0.0
          0.08 -0.005 0.0
          0.0766667 -0.005 0.0
          0.0733333 -0.005 0.0
          0.07 -0.005 0.0
          0.0666667 -0.005 0.0
          0.0633333 -0.005 0.0
          0.06 -0.005 0.0
          0.0566667 -0.005 0.0
          0.0533333 -0.005 0.0
          0.05 -0.005 0.0
          0.0466667 -0.005 0.0
          0.0433333 -0.005 0.0
          0.04 -0.005 0.0
          0.0366667 -0.005 0.0
          0.0333333 -0.005 0.0
          0.03 -0.005 0.0
          0.0266667 -0.005 0.0
          0.0233333 -0.005 0.0
          0.02 -0.005 0.0
          0.0166667 -0.005 0.0
          0.0133333 -0.005 0.0
          0.01 -0.005 0.0
          0.00666667 -0.005 0.0
          0.00333333 -0.005 0.0
          0 -0.005 0.0
          0.1 -0.00833333 0.0
          0.0966667 -0.00833333 0.0
          0.0933333 -0.00833333 0.0
          0.09 -0.00833333 0.0
          0.0866667 -0.00833333 0.0
          0.0833333 -0.00833333 0.0
          0.08 -0.00833333 0.0
          0.0766667 -0.00833333 0.0
          0.0733333 -0.00833333 0.0
          0.07 -0.00833333 0.0
          0.0666667 -0.00833333 0.0
          0.0633333 -0.00833333 0.0
          0.06 -0.00833333 0.0
          0.0566667 -0.00833333 0.0
          0.0533333 -0.00833333 0.0
          0.05 -0.00833333 0.0
          0.0466667 -0.00833333 0.0
          0.0433333 -0.00833333 0.0
          0.04 -0.00833333 0.0
          0.0366667 -0.00833333 0.0
          0.0333333 -0.00833333 0.0
          0.03 -0.00833333 0.0
          0.0266667 -0.00833333 0.0
          0.0233333 -0.00833333 0.0
          0.02 -0.00833333 0.0
          0.0166667 -0.00833333 0.0
          0.0133333 -0.00833333 0.0
          0.01 -0.00833333 0.0
          0.00666667 -0.00833333 0.0
          0.00333333 -0.00833333 0.0
          0 -0.00833333 0.0
          0.1 -0.0116667 0.0
          0.0966667 -0.0116667 0.0
          0.0933333 -0.0116667 0.0
          0.09 -0.0116667 0.0
          0.0866667 -0.0116667 0.0
          0.0833333 -0.0116667 0.0
          0.08 -0.0116667 0.0
          0.0766667 -0.0116667 0.0
          0.0733333 -0.0116667 0.0
          0.07 -0.0116667 0.0
          0.0666667 -0.0116667 0.0
          0.0633333 -0.0116667 0.0
          0.06 -0.0116667 0.0
          0.0566667 -0.0116667 0.0
          0.0533333 -0.0116667 0.0
          0.05 -0.0116667 0.0
          0.0466667 -0.0116667 0.0
          0.0433333 -0.0116667 0.0
          0.04 -0.0116667 0.0
          0.0366667 -0.0116667 0.0
          0.0333333 -0.0116667 0.0
          0.03 -0.0116667 0.0
          0.0266667 -0.0116667 0.0
          0.0233333 -0.0116667 0.0
          0.02 -0.0116667 0.0
          0.0166667 -0.0116667 0.0
          0.0133333 -0.0116667 0.0
          0.01 -0.0116667 0.0
          0.00666667 -0.0116667 0.0
          0.00333333 -0.0116667 0.0
          0 -0.0116667 0.0
          0.1 -0.015 0.0
          0.0966667 -0.015 0.0
          0.0933333 -0.015 0.0
          0.09 -0.015 0.0
          0.0866667 -0.015 0.0
          0.0833333 -0.015 0.0
          0.08 -0.015 0.0
          0.0766667 -0.015 0.0
          0.0733333 -0.015 0.0
          0.07 -0.015 0.0
          0.0666667 -0.015 0.0
          0.0633333 -0.015 0.0
          0.06 -0.015 0.0
          0.0566667 -0.015 0.0
          0.0533333 -0.015 0.0
          0.05 -0.015 0.0
          0.0466667 -0.015 0.0
          0.0433333 -0.015 0.0
          0.04 -0.015 0.0
          0.0366667 -0.015 0.0
          0.0333333 -0.015 0.0
          0.03 -0.015 0.0
          0.0266667 -0.015 0.0
          0.0233333 -0.015 0.0
          0.02 -0.015 0.0
          0.0166667 -0.015 0.0
          0.0133333 -0.015 0.0
          0.01 -0.015 0.0
          0.00666667 -0.015 0.0
          0.00333333 -0.015 0.0
          0 -0.015 0.0
          0.1 -0.0183333 0.0
          0.0966667 -0.0183333 0.0
          0.0933333 -0.0183333 0.0
          0.09 -0.0183333 0.0
          0.0866667 -0.0183333 0.0
          0.0833333 -0.0183333 0.0
          0.08 -0.0183333 0.0
          0.0766667 -0.0183333 0.0
          0.0733333 -0.0183333 0.0
          0.07 -0.0183333 0.0
          0.0666667 -0.0183333 0.0
          0.0633333 -0.0183333 0.0
          0.06 -0.0183333 0.0
          0.0566667 -0.0183333 0.0
          0.0533333 -0.0183333 0.0
          0.05 -0.0183333 0.0
          0.0466667 -0.0183333 0.0
          0.0433333 -0.0183333 0.0
          0.04 -0.0183333 0.0
          0.0366667 -0.0183333 0.0
          0.0333333 -0.0183333 0.0
          0.03 -0.0183333 0.0
          0.0266667 -0.0183333 0.0
          0.0233333 -0.0183333 0.0
          0.02 -0.0183333 0.0
          0.0166667 -0.0183333 0.0
          0.0133333 -0.0183333 0.0
          0.01 -0.0183333 0.0
          0.00666667 -0.0183333 0.0
          0.00333333 -0.0183333 0.0
          0 -0.0183333 0.0
          0.1 -0.0216667 0.0
          0.0966667 -0.0216667 0.0
          0.0933333 -0.0216667 0.0
          0.09 -0.0216667 0.0
          0.0866667 -0.0216667 0.0
          0.0833333 -0.0216667 0.0
          0.08 -0.0216667 0.0
          0.0766667 -0.0216667 0.0
          0.0733333 -0.0216667 0.0
          0.07 -0.0216667 0.0
          0.0666667 -0.0216667 0.0
          0.0633333 -0.0216667 0.0
          0.06 -0.0216667 0.0
          0.0566667 -0.0216667 0.0
          0.0533333 -0.0216667 0.0
          0.05 -0.0216667 0.0
          0.0466667 -0.0216667 0.0
          0.0433333 -0.0216667 0.0
          0.04 -0.0216667 0.0
          0.0366667 -0.0216667 0.0
          0.0333333 -0.0216667 0.0
          0.03 -0.0216667 0.0
          0.0266667 -0.0216667 0.0
          0.0233333 -0.0216667 0.0
          0.02 -0.0216667 0.0
          0.0166667 -0.0216667 0.0
          0.0133333 -0.0216667 0.0
          0.01 -0.0216667 0.0
          0.00666667 -0.0216667 0.0
          0.00333333 -0.0216667 0.0
          0 -0.0216667 0.0
          0.1 -0.025 0.0
          0.0966667 -0.025 0.0
          0.0933333 -0.025 0.0
          0.09 -0.025 0.0
          0.0866667 -0.025 0.0
          0.0833333 -0.025 0.0
          0.08 -0.025 0.0
          0.0766667 -0.025 0.0
          0.0733333 -0.025 0.0
          0.07 -0.025 0.0
          0.0666667 -0.025 0.0
          0.0633333 -0.025 0.0
          0.06 -0.025 0.0
          0.0566667 -0.025 0.0
          0.0533333 -0.025 0.0
          0.05 -0.025 0.0
          0.0466667 -0.025 0.0
          0.0433333 -0.025 0.0
          0.04 -0.025 0.0
          0.0366667 -0.025 0.0
          0.0333333 -0.025 0.0
          0.03 -0.025 0.0
          0.0266667 -0.025 0.0
          0.0233333 -0.025 0.0
          0.02 -0.025 0.0
          0.0166667 -0.025 0.0
          0.0133333 -0.025 0.0
          0.01 -0.025 0.0
          0.00666667 -0.025 0.0
          0.00333333 -0.025 0.0
          0 -0.025 0.0
          0.1 -0.0283333 0.0
          0.0966667 -0.0283333 0.0
          0.0933333 -0.0283333 0.0
          0.09 -0.0283333 0.0
          0.0866667 -0.0283333 0.0
          0.0833333 -0.0283333 0.0
          0.08 -0.0283333 0.0
          0.0766667 -0.0283333 0.0
          0.0733333 -0.0283333 0.0
          0.07 -0.0283333 0.0
          0.0666667 -0.0283333 0.0
          0.0633333 -0.0283333 0.0
          0.06 -0.0283333 0.0
          0.0566667 -0.0283333 0.0
          0.0533333 -0.0283333 0.0
          0.05 -0.0283333 0.0
          0.0466667 -0.0283333 0.0
          0.0433333 -0.0283333 0.0
          0.04 -0.0283333 0.0
          0.0366667 -0.0283333 0.0
          0.0333333 -0.0283333 0.0
          0.03 -0.0283333 0.0
          0.0266667 -0.0283333 0.0
          0.0233333 -0.0283333 0.0
          0.02 -0.0283333 0.0
          0.0166667 -0.0283333 0.0
          0.0133333 -0.0283333 0.0
          0.01 -0.0283333 0.0
          0.00666667 -0.0283333 0.0
          0.00333333 -0.0283333 0.0
          0 -0.0283333 0.0
          0.1 -0.0316667 0.0
          0.0966667 -0.0316667 0.0
          0.0933333 -0.0316667 0.0
          0.09 -0.0316667 0.0
          0.0866667 -0.0316667 0.0
          0.0833333 -0.0316667 0.0
          0.08 -0.0316667 0.0
          0.0766667 -0.0316667 0.0
          0.0733333 -0.0316667 0.0
          0.07 -0.0316667 0.0
          0.0666667 -0.0316667 0.0
          0.0633333 -0.0316667 0.0
          0.06 -0.0316667 0.0
          0.0566667 -0.0316667 0.0
          0.0533333 -0.0316667 0.0
          0.05 -0.0316667 0.0
          0.0466667 -0.0316667 0.0
          0.0433333 -0.0316667 0.0
          0.04 -0.0316667 0.0
          0.0366667 -0.0316667 0.0
          0.0333333 -0.0316667 0.0
          0.03 -0.0316667 0.0
          0.0266667 -0.0316667 0.0
          0.0233333 -0.0316667 0.0
          0.02 -0.0316667 0.0
          0.0166667 -0.0316667 0.0
          0.0133333 -0.0316667 0.0
          0.01 -0.0316667 0.0
          0.00666667 -0.0316667 0.0
          0.00333333 -0.0316667 0.0
          0 -0.0316667 0.0
          0.1 -0.035 0.0
          0.0966667 -0.035 0.0
          0.0933333 -0.035 0.0
          0.09 -0.035 0.0
          0.0866667 -0.035 0.0
          0.0833333 -0.035 0.0
          0.08 -0.035 0.0
          0.0766667 -0.035 0.0
          0.0733333 -0.035 0.0
          0.07 -0.035 0.0
          0.0666667 -0.035 0.0
          0.0633333 -0.035 0.0
          0.06 -0.035 0.0
          0.0566667 -0.035 0.0
          0.0533333 -0.035 0.0
          0.05 -0.035 0.0
          0.0466667 -0.035 0.0