<?xml version="1.0"?>
<VTKFile type="UnstructuredGrid" version="0.1" byte_order="LittleEndian">
  <UnstructuredGrid>
    <Piece NumberOfPoints="961" NumberOfCells="900">
      <PointData Scalars="Temperature">
        <DataArray type="Float32" Name="Temperature" format="ascii">
          21.0313
          22.3778
          23.773
          25.1664
          26.337
          27.1062
          27.3971
          27.3699
          27.2595
          27.2612
          27.3898
          27.5193
          27.518
          27.3857
          27.2546
          27.2569
          27.3919
          27.5273
          27.5312
          27.4055
          27.2823
          27.2882
          27.4083
          27.4529
          27.1987
          26.5038
          25.4548
          24.2345
          23.0627
          21.9991
          21.0245
          22.3364
          76.5067
          134.649
          193.043
          243.662
          275.216
          286.192
          282.588
          276.453
          276.415
          283.089
          289.827
          289.78
          282.93
          276.129
          276.224
          283.196
          290.164
          290.313
          283.712
          277.266
          277.616
          284.143
          288.335
          278.747
          250.097
          204.514
          153.228
          104.226
          61.4793
          21.9733
          23.5321
          126.435
          238.35
          372.409
          481.318
          550.397
          561.26
          540.228
          516.562
          515.932
          539.39
          563.066
          563.019
          539.128
          515.334
          515.569
          539.712
          563.822
          563.97
          540.517
          517.487
          518.828
          543.197
          565.013
          555.524
          491.784
          392.764
          273.434
          179.135
          97.878
          22.8495
          24.5246
          167.683
          324.713
          513.038
          853.138
          853.176
          853.185
          853.168
          696.403
          695.129
          847.892
          847.911
          847.911
          847.892
          694.195
          694.541
          849.155
          849.174
          849.174
          849.155
          697.18
          699.465
          858.047
          858.065
          858.057
          858.021
          540.089
          373.685
          241.747
          128.617
          23.5916
          25.2462
          197.32
          382.478
          602.315
          853.366
          853.38
          853.387
          853.387
          801.915
          800.148
          848.116
          848.119
          848.119
          848.116
          798.981
          799.402
          849.378
          849.381
          849.381
          849.378
          802.463
          805.437
          858.263
          858.264
          858.258
          858.245
          634.184
          442.513
          288.284
          152.118
          24.1645
          25.7007
          215.308
          414.26
          627.95
          853.938
          853.95
          853.956
          853.958
          835.424
          833.663
          848.703
          848.704
          848.704
          848.703
          832.36
          832.781
          849.963
          849.964
          849.965
          849.964
          836.088
          839.053
          858.825
          858.824
          858.818
          858.808
          663.979
          482.649
          318.663
          168.316
          24.5652
          25.9471
          224.76
          428.238
          638.69
          854.865
          854.877
          854.883
          854.885
          846.691
          844.94
          849.659
          849.66
          849.66
          849.659
          843.602
          844.021
          850.916
          850.916
          850.916
          850.916
          847.394
          850.346
          859.737
          859.735
          859.73
          859.72
          677.804
          502.639
          336.578
          178.461
          24.8211
          26.0693
          229.277
          434.822
          643.898
          856.147
          856.158
          856.164
          856.166
          851.236
          849.498
          850.982
          850.982
          850.982
          850.981
          848.159
          848.577
          852.233
          852.234
          852.234
          852.234
          851.953
          854.886
          860.996
          860.995
          860.989
          860.98
          685.16
          513.301
          346.554
          184.413
          24.9735
          26.1297
          231.559
          438.257
          646.976
          857.778
          857.789
          857.796
          857.798
          853.919
          852.2
          852.667
          852.667
          852.667
          852.667
          850.871
          851.287
          853.913
          853.913
          853.913
          853.913
          854.645
          857.552
          862.6
          862.599
          862.594
          862.585
          689.665
          519.392
          352.237
          187.838
          25.062
          26.1645
          232.892
          440.414
          649.286
          859.757
          859.768
          859.774
          859.776
          856.262
          854.564
          854.711
          854.711
          854.711
          854.711
          853.254
          853.667
          855.949
          855.95
          855.95
          855.95
          856.994
          859.87
          864.545
          864.543
          864.538
          864.529
          692.898
          523.25
          355.691
          189.893
          25.1148
          26.1891
          233.859
          442.108
          651.405
          862.077
          862.088
          862.095
          862.097
          858.736
          857.064
          857.109
          857.109
          857.109
          857.109
          855.777
          856.187
          858.339
          858.339
          858.339
          858.339
          859.475
          862.315
          866.825
          866.823
          866.818
          866.809
          695.614
          526.052
          358.035
          191.246
          25.1493
          26.2104
          234.713
          443.697
          653.584
          864.733
          864.744
          864.751
          864.753
          861.486
          859.844
          859.855
          859.855
          859.855
          859.855
          858.584
          858.991
          861.075
          861.075
          861.075
          861.075
          862.233
          865.031
          869.435
          869.433
          869.428
          869.419
          698.194
          528.405
          359.864
          192.263
          25.1749
          26.2315
          235.567
          445.333
          655.929
          867.719
          867.73
          867.736
          867.738
          864.552
          862.944
          862.943
          862.943
          862.943
          862.943
          861.714
          862.118
          864.151
          864.151
          864.151
          864.151
          865.308
          868.058
          872.367
          872.366
          872.36
          872.351
          700.831
          530.623
          361.494
          193.139
          25.1967
          26.2536
          236.468
          447.084
          658.482
          871.026
          871.037
          871.043
          871.046
          867.941
          866.372
          866.364
          866.364
          866.364
          866.364
          865.175
          865.575
          867.559
          867.559
          867.559
          867.559
          868.707
          871.403
          875.615
          875.614
          875.609
          875.6
          703.623
          532.875
          363.092
          193.98
          25.2175
          26.2773
          237.438
          448.977
          661.261
          874.647
          874.658
          874.664
          874.666
          871.65
          870.122
          870.11
          870.11
          870.11
          870.11
          868.963
          869.358
          871.291
          871.291
          871.291
          871.291
          872.426
          875.063
          879.171
          879.169
          879.164
          879.155
          706.628
          535.253
          364.755
          194.847
          25.2389
          26.3031
          238.487
          451.027
          664.272
          878.572
          878.583
          878.59
          878.592
          875.669
          874.187
          874.172
          874.172
          874.172
          874.172
          873.07
          873.459
          875.338
          875.338
          875.338
          875.338
          876.457
          879.03
          883.025
          883.023
          883.018
          883.009
          709.88
          537.826
          366.552
          195.783
          25.262
          26.3308
          239.627
          453.248
          667.521
          882.792
          882.803
          882.81
          882.812
          879.991
          878.559
          878.541
          878.541
          878.541
          878.54
          877.485
          877.868
          879.689
          879.689
          879.689
          879.689
          880.791
          883.294
          887.167
          887.165
          887.16
          887.151
          713.42
          540.661
          368.554
          196.833
          25.2877
          26.3626
          240.878
          455.665
          671.022
          887.296
          887.307
          887.314
          887.316
          884.604
          883.225
          883.204
          883.204
          883.204
          883.204
          882.199
          882.576
          884.333
          884.334
          884.334
          884.334
          885.417
          887.845
          891.586
          891.585
          891.58
          891.571
          717.306
          543.864
          370.87
          198.065
          25.3193
          26.3933
          242.287
          458.341
          674.814
          892.072
          892.084
          892.09
          892.093
          889.497
          888.174
          888.15
          888.15
          888.15
          888.15
          887.199
          887.569
          889.26
          889.26
          889.26
          889.261
          890.323
          892.671
          896.273
          896.271
          896.266
          896.257
          721.65
          547.623
          373.689
          199.602
          25.3536
          26.4516
          243.953
          461.425
          678.996
          897.11
          897.121
          897.128
          897.13
          894.657
          893.395
          893.368
          893.368
          893.368
          893.368
          892.473
          892.837
          894.457
          894.457
          894.457
          894.457
          895.497
          897.76
          901.214
          901.212
          901.207
          901.198
          726.665
          552.293
          377.376
          201.665
          25.4225
          26.4405
          246.152
          465.249
          683.804
          902.396
          902.407
          902.414
          902.416
          900.073
          898.875
          898.844
          898.844
          898.844
          898.844
          898.009
          898.365
          899.91
          899.911
          899.911
          899.911
          900.927
          903.099
          906.397
          906.395
          906.39
          906.381
          732.763
          558.558
          382.616
          204.721
          25.4331
          26.7919
          249.331
          470.633
          689.776
          907.917
          907.928
          907.934
          907.936
          905.733
          904.601
          904.565
          904.565
          904.565
          904.565
          903.795
          904.143
          905.607
          905.607
          905.608
          905.608
          906.601
          908.678
          911.808
          911.806
          911.802
          911.794
          740.724
          567.702
          390.776
          209.501
          25.8266
          25.8702
          255.27
          479.237
          698.2
          913.66
          913.67
          913.675
          913.677
          911.628
          910.567
          910.516
          910.516
          910.516
          910.516
          909.823
          910.163
          911.533
          911.533
          911.534
          911.535
          912.511
          914.486
          917.432
          917.432
          917.429
          917.422
          751.982
          582.211
          404.297
          218.167
          24.9675
          30.459
          265.052
          495.718
          711.751
          919.611
          919.62
          919.622
          919.622
          917.762
          916.776
          916.684
          916.683
          916.683
          916.682
          916.097
          916.427
          917.671
          917.672
          917.676
          917.677
          918.66
          920.526
          923.253
          923.256
          923.259
          923.255
          769.109
          606.456
          428.806
          232.227
          29.6857
          13.885
          293.617
          527.24
          737.091
          925.761
          925.764
          925.756
          925.752
          924.181
          923.277
          923.052
          923.051
          923.049
          923.048
          922.666
          922.984
          924.003
          924.008
          924.018
          924.023
          925.097
          926.841
          929.248
          929.258
          929.279
          929.285
          795.829
          649.044
          472.389
          267.039
          13.1712
          84.4956
          329.429
          603.494
          783.376
          932.107
          932.092
          932.057
          932.036
          931.069
          930.26
          929.609
          929.605
          929.599
          929.595
          929.721
          930.021
          930.504
          930.52
          930.551
          930.568
          932.007
          933.602
          935.373
          935.414
          935.486
          935.522
          835.875
          720.498
          565.272
          311.08
          84.3574
          -188.284
          553.94
          747.883
          856.931
          938.666
          938.618
          938.477
          938.427
          939.041
          938.382
          936.343
          936.334
          936.31
          936.302
          937.916
          938.174
          937.13
          937.17
          937.28
          937.32
          940.054
          941.383
          941.551
          941.648
          941.918
          942.013
          890.38
          826.634
          730.322
          546.443
          -189.663
          949.945
          952.551
          953.015
          951.905
          946.994
          944.622
          944.347
          946.038
          949.477
          949.101
          944.679
          942.513
          942.467
          944.52
          948.709
          948.874
          945.099
          943.255
          943.469
          945.839
          950.698
          951.494
          948.682
          947.318
          947.844
          950.505
          956.06
          957.897
          958.414
          957.659
          954.959
          951.752
          953.413
          953.802
          952.803
          951.18
          949.725
          949.338
          949.908
          950.483
          950.123
          948.901
          947.773
          947.708
          948.687
          949.738
          949.898
          949.139
          948.424
          948.731
          950.139
          951.698
          952.464
          952.296
          952.112
          952.858
          954.736
          956.891
          958.565
          959.049
          958.435
          956.696
          954.522
          955.363
          955.507
          955.029
          954.164
          953.37
          952.956
          952.905
          952.883
          952.586
          952.031
          951.557
          951.486
          951.814
          952.212
          952.35
          952.223
          952.156
          952.49
          953.247
          954.12
          954.767
          955.155
          955.579
          956.383
          957.611
          958.978
          960.028
          960.455
          960.19
          959.3
          956.154
          956.193
          956.278
          955.915
          955.267
          954.628
          954.217
          954.029
          953.88
          953.598
          953.198
          952.87
          952.799
          952.982
          953.233
          953.365
          953.377
          953.455
          953.791
          954.401
          955.111
          955.728
          956.231
          956.788
          957.591
          958.664
          959.799
          960.685
          961.074
          960.934
          960.862
        </DataArray>
      </PointData>
      <CellData>
      </CellData>
      <Points>
        <DataArray type="Float32" NumberOfComponents="3" format="ascii">
          0.1 0.005 0.0
          0.0966667 0.005 0.0
          0.0933333 0.005 0.0
          0.09 0.005 0.0
          0.0866667 0.005 0.0
          0.0833333 0.005 0.0
          0.08 0.005 0.0
          0.0766667 0.005 0.0
          0.0733333 0.005 0.0
          0.07 0.005 0.0
          0.0666667 0.005 0.0
          0.0633333 0.005 0.0
          0.06 0.005 0.0
          0.0566667 0.005 0.0
          0.0533333 0.005 0.0
          0.05 0.005 0.0
          0.0466667 0.005 0.0
          0.0433333 0.005 0.0
          0.04 0.005 0.0
          0.0366667 0.005 0.0
          0.0333333 0.005 0.0
          0.03 0.005 0.0
          0.0266667 0.005 0.0
          0.0233333 0.005 0.0
          0.02 0.005 0.0
          0.0166667 0.005 0.0
          0.0133333 0.005 0.0
          0.01 0.005 0.0
          0.00666667 0.005 0.0
          0.00333333 0.005 0.0
          0 0.005 0.0
          0.1 0.00166667 0.0
          0.0966667 0.00166667 0.0
          0.0933333 0.00166667 0.0
          0.09 0.00166667 0.0
          0.0866667 0.00166667 0.0
          0.0833333 0.00166667 0.0
          0.08 0.00166667 0.0
          0.0766667 0.00166667 0.0
          0.0733333 0.00166667 0.0
          0.07 0.00166667 0.0
          0.0666667 0.00166667 0.0
          0.0633333 0.00166667 0.0
          0.06 0.00166667 0.0
          0.0566667 0.00166667 0.0
          0.0533333 0.00166667 0.0
          0.05 0.00166667 0.0
          0.0466667 0.00166667 0.0
          0.0433333 0.00166667 0.0
          0.04 0.00166667 0.0
          0.0366667 0.00166667 0.0
          0.0333333 0.00166667 0.0
          0.03 0.00166667 0.0
          0.0266667 0.00166667 0.0
          0.0233333 0.00166667 0.0
          0.02 0.00166667 0.0
          0.0166667 0.00166667 0.0
          0.0133333 0.00166667 0.0
          0.01 0.00166667 0.0
          0.00666667 0.00166667 0.0
          0.00333333 0.00166667 0.0
          0 0.00166667 0.0
          0.1 -0.00166667 0.0
          0.0966667 -0.00166667 0.0
          0.0933333 -0.00166667 0.0
          0.09 -0.00166667 0.0
          0.0866667 -0.00166667 0.0
          0.0833333 -0.00166667 0.0
          0.08 -0.00166667 0.0
          0.0766667 -0.00166667 0.0
          0.0733333 -0.00166667 0.0
          0.07 -0.00166667 0.0
          0.0666667 -0.00166667 0.0
          0.0633333 -0.00166667 0.0
          0.06 -0.00166667 0.0
          0.0566667 -0.00166667 0.0
          0.0533333 -0.00166667 0.0
          0.05 -0.00166667 0.0
          0.0466667 -0.00166667 0.0
          0.0433333 -0.00166667 0.0
          0.04 -0.00166667 0.0
          0.0366667 -0.00166667 0.0
          0.0333333 -0.00166667 0.0
          0.03 -0.00166667 0.0
          0.0266667 -0.00166667 0.0
          0.0233333 -0.00166667 0.0
          0.02 -0.00166667 0.0
          0.0166667 -0.00166667 0.0
          0.0133333 -0.00166667 0.0
          0.01 -0.00166667 0.0
          0.00666667 -0.00166667 0.0
          0.00333333 -0.00166667 0.0
          0 -0.00166667 0.0
          0.1 -0.005 0.0
          0.0966667 -0.005 0.0
          0.0933333 -0.005 0.0
          0.09 -0.005 0.0
          0.0866667 -0.005 0.0
          0.0833333 -0.005 0.0
          0.08 -0.005 0.0
          0.0766667 -0.005 0.0
          0.0733333 -0.005 0.0
          0.07 -0.005 0.0
          0.0666667 -0.005 0.0
          0.0633333 -0.005 0.0
          0.06 -0.005 0.0
          0.0566667 -0.005 0.0
          0.0533333 -0.005 0.0
          0.05 -0.005 0.0
          0.0466667 -0.005 0.0
          0.0433333 -0.005 0.0
          0.04 -0.005 0.0
          0.0366667 -0.005 0.0
          0.0333333 -0.005 0.0
          0.03 -0.005 0.0
          0.0266667 -0.005 0.0
          0.0233333 -0.005 0.0
          0.02 -0.005 0.0
          0.0166667 -0.005 0.0
          0.0133333 -0.005 0.0
          0.01 -0.005 0.0
          0.00666667 -0.005 0.0
          0.00333333 -0.005 0.0
          0 -0.005 0.0
          0.1 -0.00833333 0.0
          0.0966667 -0.00833333 0.0
          0.0933333 -0.00833333 0.0
          0.09 -0.00833333 0.0
          0.0866667 -0.00833333 0.0
          0.0833333 -0.00833333 0.0
          0.08 -0.00833333 0.0
          0.0766667 -0.00833333 0.0
          0.0733333 -0.00833333 0.0
          0.07 -0.00833333 0.0
          0.0666667 -0.00833333 0.0
          0.0633333 -0.00833333 0.0
          0.06 -0.00833333 0.0
          0.0566667 -0.00833333 0.0
          0.0533333 -0.00833333 0.0
          0.05 -0.00833333 0.0
          0.0466667 -0.00833333 0.0
          0.0433333 -0.00833333 0.0
          0.04 -0.00833333 0.0
          0.0366667 -0.00833333 0.0
          0.0333333 -0.00833333 0.0
          0.03 -0.00833333 0.0
          0.0266667 -0.00833333 0.0
          0.0233333 -0.00833333 0.0
          0.02 -0.00833333 0.0
          0.0166667 -0.00833333 0.0
          0.0133333 -0.00833333 0.0
          0.01 -0.00833333 0.0
          0.00666667 -0.00833333 0.0
          0.00333333 -0.00833333 0.0
          0 -0.00833333 0.0
          0.1 -0.0116667 0.0
          0.0966667 -0.0116667 0.0
          0.0933333 -0.0116667 0.0
          0.09 -0.0116667 0.0
          0.0866667 -0.0116667 0.0
          0.0833333 -0.0116667 0.0
          0.08 -0.0116667 0.0
          0.0766667 -0.0116667 0.0
          0.0733333 -0.0116667 0.0
          0.07 -0.0116667 0.0
          0.0666667 -0.0116667 0.0
          0.0633333 -0.0116667 0.0
          0.06 -0.0116667 0.0
          0.0566667 -0.0116667 0.0
          0.0533333 -0.0116667 0.0
          0.05 -0.0116667 0.0
          0.0466667 -0.0116667 0.0
          0.0433333 -0.0116667 0.0
          0.04 -0.0116667 0.0
          0.0366667 -0.0116667 0.0
          0.0333333 -0.0116667 0.0
          0.03 -0.0116667 0.0
          0.0266667 -0.0116667 0.0
          0.0233333 -0.0116667 0.0
          0.02 -0.0116667 0.0
          0.0166667 -0.0116667 0.0
          0.0133333 -0.0116667 0.0
          0.01 -0.0116667 0.0
          0.00666667 -0.0116667 0.0
          0.00333333 -0.0116667 0.0
          0 -0.0116667 0.0
          0.1 -0.015 0.0
          0.0966667 -0.015 0.0
          0.0933333 -0.015 0.0
          0.09 -0.015 0.0
          0.0866667 -0.015 0.0
          0.0833333 -0.015 0.0
          0.08 -0.015 0.0
          0.0766667 -0.015 0.0
          0.0733333 -0.015 0.0
          0.07 -0.015 0.0
          0.0666667 -0.015 0.0
          0.0633333 -0.015 0.0
          0.06 -0.015 0.0
          0.0566667 -0.015 0.0
          0.0533333 -0.015 0.0
          0.05 -0.015 0.0
          0.0466667 -0.015 0.0
          0.0433333 -0.015 0.0
          0.04 -0.015 0.0
          0.0366667 -0.015 0.0
          0.0333333 -0.015 0.0
          0.03 -0.015 0.0
          0.0266667 -0.015 0.0
          0.0233333 -0.015 0.0
          0.02 -0.015 0.0
          0.0166667 -0.015 0.0
          0.0133333 -0.015 0.0
          0.01 -0.015 0.0
          0.00666667 -0.015 0.0
          0.00333333 -0.015 0.0
          0 -0.015 0.0
          0.1 -0.0183333 0.0
          0.0966667 -0.0183333 0.0
          0.0933333 -0.0183333 0.0
          0.09 -0.0183333 0.0
          0.0866667 -0.0183333 0.0
          0.0833333 -0.0183333 0.0
          0.08 -0.0183333 0.0
          0.0766667 -0.0183333 0.0
          0.0733333 -0.0183333 0.0
          0.07 -0.0183333 0.0
          0.0666667 -0.0183333 0.0
          0.0633333 -0.0183333 0.0
          0.06 -0.0183333 0.0
          0.0566667 -0.0183333 0.0
          0.0533333 -0.0183333 0.0
          0.05 -0.0183333 0.0
          0.0466667 -0.0183333 0.0
          0.0433333 -0.0183333 0.0
          0.04 -0.0183333 0.0
          0.0366667 -0.0183333 0.0
          0.0333333 -0.0183333 0.0
          0.03 -0.0183333 0.0
          0.0266667 -0.0183333 0.0
          0.0233333 -0.0183333 0.0
          0.02 -0.0183333 0.0
          0.0166667 -0.0183333 0.0
          0.0133333 -0.0183333 0.0
          0.01 -0.0183333 0.0
          0.00666667 -0.0183333 0.0
          0.00333333 -0.0183333 0.0
          0 -0.0183333 0.0
          0.1 -0.0216667 0.0
          0.0966667 -0.0216667 0.0
          0.0933333 -0.0216667 0.0
          0.09 -0.0216667 0.0
          0.0866667 -0.0216667 0.0
          0.0833333 -0.0216667 0.0
          0.08 -0.0216667 0.0
          0.0766667 -0.0216667 0.0
          0.0733333 -0.0216667 0.0
          0.07 -0.0216667 0.0
          0.0666667 -0.0216667 0.0
          0.0633333 -0.0216667 0.0
          0.06 -0.0216667 0.0
          0.0566667 -0.0216667 0.0
          0.0533333 -0.0216667 0.0
          0.05 -0.0216667 0.0
          0.0466667 -0.0216667 0.0
          0.0433333 -0.0216667 0.0
          0.04 -0.0216667 0.0
          0.0366667 -0.0216667 0.0
          0.0333333 -0.0216667 0.0
          0.03 -0.0216667 0.0
          0.0266667 -0.0216667 0.0
          0.0233333 -0.0216667 0.0
          0.02 -0.0216667 0.0
          0.0166667 -0.0216667 0.0
          0.0133333 -0.0216667 0.0
          0.01 -0.0216667 0.0
          0.00666667 -0.0216667 0.0
          0.00333333 -0.0216667 0.0
          0 -0.0216667 0.0
          0.1 -0.025 0.0
          0.0966667 -0.025 0.0
          0.0933333 -0.025 0.0
          0.09 -0.025 0.0
          0.0866667 -0.025 0.0
          0.0833333 -0.025 0.0
          0.08 -0.025 0.0
          0.0766667 -0.025 0.0
          0.0733333 -0.025 0.0
          0.07 -0.025 0.0
          0.0666667 -0.025 0.0
          0.0633333 -0.025 0.0
          0.06 -0.025 0.0
          0.0566667 -0.025 0.0
          0.0533333 -0.025 0.0
          0.05 -0.025 0.0
          0.0466667 -0.025 0.0
          0.0433333 -0.025 0.0
          0.04 -0.025 0.0
          0.0366667 -0.025 0.0
          0.0333333 -0.025 0.0
          0.03 -0.025 0.0
          0.0266667 -0.025 0.0
          0.0233333 -0.025 0.0
          0.02 -0.025 0.0
          0.0166667 -0.025 0.0
          0.0133333 -0.025 0.0
          0.01 -0.025 0.0
          0.00666667 -0.025 0.0
          0.00333333 -0.025 0.0
          0 -0.025 0.0
          0.1 -0.0283333 0.0
          0.0966667 -0.0283333 0.0
          0.0933333 -0.0283333 0.0
          0.09 -0.0283333 0.0
          0.0866667 -0.0283333 0.0
          0.0833333 -0.0283333 0.0
          0.08 -0.0283333 0.0
          0.0766667 -0.0283333 0.0
          0.0733333 -0.0283333 0.0
          0.07 -0.0283333 0.0
          0.0666667 -0.0283333 0.0
          0.0633333 -0.0283333 0.0
          0.06 -0.0283333 0.0
          0.0566667 -0.0283333 0.0
          0.0533333 -0.0283333 0.0
          0.05 -0.0283333 0.0
          0.0466667 -0.0283333 0.0
          0.0433333 -0.0283333 0.0
          0.04 -0.0283333 0.0
          0.0366667 -0.0283333 0.0
          0.0333333 -0.0283333 0.0
          0.03 -0.0283333 0.0
          0.0266667 -0.0283333 0.0
          0.0233333 -0.0283333 0.0
          0.02 -0.0283333 0.0
          0.0166667 -0.0283333 0.0
          0.0133333 -0.0283333 0.0
          0.01 -0.0283333 0.0
          0.00666667 -0.0283333 0.0
          0.00333333 -0.0283333 0.0
          0 -0.0283333 0.0
          0.1 -0.0316667 0.0
          0.0966667 -0.0316667 0.0
          0.0933333 -0.0316667 0.0
          0.09 -0.0316667 0.0
          0.0866667 -0.0316667 0.0
          0.0833333 -0.0316667 0.0
          0.08 -0.0316667 0.0
          0.0766667 -0.0316667 0.0
          0.0733333 -0.0316667 0.0
          0.07 -0.0316667 0.0
          0.0666667 -0.0316667 0.0
          0.0633333 -0.0316667 0.0
          0.06 -0.0316667 0.0
          0.0566667 -0.0316667 0.0
          0.0533333 -0.0316667 0.0
          0.05 -0.0316667 0.0
          0.0466667 -0.0316667 0.0
          0.0433333 -0.0316667 0.0
          0.04 -0.0316667 0.0
          0.0366667 -0.0316667 0.0
          0.0333333 -0.0316667 0.0
          0.03 -0.0316667 0.0
          0.0266667 -0.0316667 0.0
          0.0233333 -0.0316667 0.0
          0.02 -0.0316667 0.0
          0.0166667 -0.0316667 0.0
          0.0133333 -0.0316667 0.0
          0.01 -0.0316667 0.0
          0.00666667 -0.0316667 0.0
          0.00333333 -0.0316667 0.0
          0 -0.0316667 0.0
          0.1 -0.035 0.0
          0.0966667 -0.035 0.0
          0.0933333 -0.035 0.0
          0.09 -0.035 0.0
          0.0866667 -0.035 0.0
          0.0833333 -0.035 0.0
          0.08 -0.035 0.0
          0.0766667 -0.035 0.0
          0.0733333 -0.035 0.0
          0.07 -0.035 0.0
          0.0666667 -0.035 0.0
          0.0633333 -0.035 0.0
          0.06 -0.035 0.0
          0.0566667 -0.035 0.0
          0.0533333 -0.035 0.0
          0.05 -0.035 0.0