<?xml version="1.0"?>
<VTKFile type="UnstructuredGrid" version="0.1" byte_order="LittleEndian">
  <UnstructuredGrid>
    <Piece NumberOfPoints="961" NumberOfCells="900">
      <PointData Scalars="Temperature">
        <DataArray type="Float32" Name="Temperature" format="ascii">
          45.7591
          45.7591
          45.7591
          45.7591
          45.7591
          45.7591
          45.7591
          45.7591
          45.7591
          45.7591
          45.7591
          45.7591
          45.7591
          45.7591
          45.7591
          45.7591
          45.7591
          45.7591
          45.7591
          45.7591
          45.7591
          45.7591
          45.7591
          45.7591
          45.7591
          45.7591
          45.7591
          45.7591
          45.7591
          45.7591
          45.7591
          45.7591
          45.7591
          45.7591
          45.7591
          45.7591
          45.7591
          45.7591
          45.7591
          45.7591
          45.7591
          45.7591
          45.7591
          45.7591
          45.7591
          45.7591
          45.7591
          45.7591
          45.7591
          45.7591
          45.7591
          45.7591
          45.7591
          45.7591
          45.7591
          45.7591
          45.7591
          45.7591
          45.7591
          45.7591
          45.7591
          45.7591
          45.7591
          45.7591
          45.7591
          45.7591
          45.7591
          45.7591
          45.7591
          45.7591
          45.7591
          45.7591
          45.7591
          45.7591
          45.7591
          45.7591
          45.7591
          45.7591
          45.7591
          45.7591
          45.7591
          45.7591
          45.7591
          45.7591
          45.7591
          45.7591
          45.7591
          45.7591
          45.7591
          45.7591
          45.7591
          45.7591
          45.7591
          45.7591
          45.7591
          45.7591
          45.7591
          69.2773
          69.2795
          69.2799
          69.2789
          45.7591
          45.7591
          69.6202
          69.6214
          69.6214
          69.6202
          45.7591
          45.7591
          69.6577
          69.6589
          69.6589
          69.6577
          45.7591
          45.7591
          69.3581
          69.3592
          69.3588
          69.3568
          45.7591
          45.7591
          45.7591
          45.7591
          45.7591
          45.7591
          45.7591
          45.7591
          45.7591
          69.2804
          69.2812
          69.2816
          69.2815
          45.7591
          45.7591
          69.6227
          69.6229
          69.6229
          69.6227
          45.7591
          45.7591
          69.6602
          69.6604
          69.6604
          69.6602
          45.7591
          45.7591
          69.3607
          69.3608
          69.3605
          69.3598
          45.7591
          45.7591
          45.7591
          45.7591
          45.7591
          45.7591
          45.7591
          45.7591
          45.7591
          69.2833
          69.284
          69.2844
          69.2844
          45.7591
          45.7591
          69.6251
          69.6253
          69.6253
          69.6251
          45.7591
          45.7591
          69.6627
          69.6628
          69.6628
          69.6626
          45.7591
          45.7591
          69.3635
          69.3636
          69.3633
          69.3627
          45.7591
          45.7591
          45.7591
          45.7591
          45.7591
          45.7591
          45.7591
          45.7591
          45.7591
          69.2869
          69.2875
          69.2878
          69.2879
          45.7591
          45.7591
          69.628
          69.6281
          69.6281
          69.628
          45.7591
          45.7591
          69.6655
          69.6656
          69.6656
          69.6655
          45.7591
          45.7591
          69.3669
          69.3669
          69.3667
          69.3661
          45.7591
          45.7591
          45.7591
          45.7591
          45.7591
          45.7591
          45.7591
          45.7591
          45.7591
          69.291
          69.2916
          69.292
          69.292
          45.7591
          45.7591
          69.6313
          69.6314
          69.6314
          69.6313
          45.7591
          45.7591
          69.6688
          69.6689
          69.6689
          69.6688
          45.7591
          45.7591
          69.3709
          69.3709
          69.3706
          69.3701
          45.7591
          45.7591
          45.7591
          45.7591
          45.7591
          45.7591
          45.7591
          45.7591
          45.7591
          69.2958
          69.2964
          69.2967
          69.2968
          45.7591
          45.7591
          69.635
          69.635
          69.635
          69.635
          45.7591
          45.7591
          69.6725
          69.6726
          69.6726
          69.6725
          45.7591
          45.7591
          69.3755
          69.3755
          69.3752
          69.3747
          45.7591
          45.7591
          45.7591
          45.7591
          45.7591
          45.7591
          45.7591
          45.7591
          45.7591
          69.3011
          69.3018
          69.3021
          69.3021
          45.7591
          45.7591
          69.639
          69.6391
          69.6391
          69.639
          45.7591
          45.7591
          69.6766
          69.6766
          69.6766
          69.6766
          45.7591
          45.7591
          69.3807
          69.3806
          69.3804
          69.3798
          45.7591
          45.7591
          45.7591
          45.7591
          45.7591
          45.7591
          45.7591
          45.7591
          45.7591
          69.3071
          69.3078
          69.3081
          69.3081
          45.7591
          45.7591
          69.6435
          69.6436
          69.6436
          69.6435
          45.7591
          45.7591
          69.681
          69.6811
          69.6811
          69.681
          45.7591
          45.7591
          69.3864
          69.3864
          69.3861
          69.3856
          45.7591
          45.7591
          45.7591
          45.7591
          45.7591
          45.7591
          45.7591
          45.7591
          45.7591
          69.3137
          69.3144
          69.3147
          69.3147
          45.7591
          45.7591
          69.6484
          69.6485
          69.6485
          69.6484
          45.7591
          45.7591
          69.6859
          69.686
          69.686
          69.6859
          45.7591
          45.7591
          69.3927
          69.3927
          69.3924
          69.3919
          45.7591
          45.7591
          45.7591
          45.7591
          45.7591
          45.7591
          45.7591
          45.7591
          45.7591
          69.3209
          69.3216
          69.3219
          69.322
          45.7591
          45.7591
          69.6537
          69.6537
          69.6538
          69.6537
          45.7591
          45.7591
          69.6912
          69.6913
          69.6913
          69.6912
          45.7591
          45.7591
          69.3996
          69.3995
          69.3993
          69.3987
          45.7591
          45.7591
          45.7591
          45.7591
          45.7591
          45.7591
          45.7591
          45.7591
          45.7591
          69.3288
          69.3294
          69.3297
          69.3298
          45.7591
          45.7591
          69.6593
          69.6594
          69.6594
          69.6594
          45.7591
          45.7591
          69.6969
          69.697
          69.697
          69.6969
          45.7591
          45.7591
          69.407
          69.407
          69.4067
          69.4062
          45.7591
          45.7591
          45.7591
          45.7591
          45.7591
          45.7591
          45.7591
          45.7591
          45.7591
          69.3372
          69.3379
          69.3382
          69.3382
          45.7591
          45.7591
          69.6654
          69.6655
          69.6655
          69.6654
          45.7591
          45.7591
          69.703
          69.7031
          69.7031
          69.703
          45.7591
          45.7591
          69.415
          69.415
          69.4147
          69.4142
          45.7591
          45.7591
          45.7591
          45.7591
          45.7591
          45.7591
          45.7591
          45.7591
          45.7591
          69.3463
          69.3469
          69.3473
          69.3473
          45.7591
          45.7591
          69.6719
          69.672
          69.672
          69.6719
          45.7591
          45.7591
          69.7095
          69.7095
          69.7095
          69.7095
          45.7591
          45.7591
          69.4236
          69.4236
          69.4233
          69.4228
          45.7591
          45.7591
          45.7591
          45.7591
          45.7591
          45.7591
          45.7591
          45.7591
          45.7591
          69.356
          69.3566
          69.357
          69.357
          45.7591
          45.7591
          69.6788
          69.6789
          69.6789
          69.6788
          45.7591
          45.7591
          69.7164
          69.7164
          69.7164
          69.7163
          45.7591
          45.7591
          69.4328
          69.4328
          69.4325
          69.432
          45.7591
          45.7591
          45.7591
          45.7591
          45.7591
          45.7591
          45.7591
          45.7591
          45.7591
          69.3663
          69.3669
          69.3673
          69.3673
          45.7591
          45.7591
          69.6861
          69.6861
          69.6862
          69.6861
          45.7591
          45.7591
          69.7236
          69.7237
          69.7237
          69.7236
          45.7591
          45.7591
          69.4425
          69.4425
          69.4422
          69.4417
          45.7591
          45.7591
          45.7591
          45.7591
          45.7591
          45.7591
          45.7591
          45.7591
          45.7591
          69.3772
          69.3778
          69.3782
          69.3782
          45.7591
          45.7591
          69.6937
          69.6938
          69.6938
          69.6938
          45.7591
          45.7591
          69.7313
          69.7314
          69.7314
          69.7313
          45.7591
          45.7591
          69.4528
          69.4528
          69.4525
          69.452
          45.7591
          45.7591
          45.7591
          45.7591
          45.7591
          45.7591
          45.7591
          45.7591
          45.7591
          69.3887
          69.3894
          69.3897
          69.3897
          45.7591
          45.7591
          69.7018
          69.7019
          69.7019
          69.7018
          45.7591
          45.7591
          69.7394
          69.7395
          69.7395
          69.7394
          45.7591
          45.7591
          69.4637
          69.4637
          69.4634
          69.4629
          45.7591
          45.7591
          45.7591
          45.7591
          45.7591
          45.7591
          45.7591
          45.7591
          45.7591
          69.4009
          69.4015
          69.4019
          69.4019
          45.7591
          45.7591
          69.7103
          69.7104
          69.7104
          69.7103
          45.7591
          45.7591
          69.7479
          69.748
          69.748
          69.7479
          45.7591
          45.7591
          69.4752
          69.4752
          69.4749
          69.4744
          45.7591
          45.7591
          45.7591
          45.7591
          45.7591
          45.7591
          45.7591
          45.7591
          45.7591
          69.4136
          69.4143
          69.4146
          69.4147
          45.7591
          45.7591
          69.7192
          69.7193
          69.7193
          69.7192
          45.7591
          45.7591
          69.7568
          69.7569
          69.7569
          69.7568
          45.7591
          45.7591
          69.4872
          69.4872
          69.4869
          69.4864
          45.7591
          45.7591
          45.7591
          45.7591
          45.7591
          45.7591
          45.7591
          45.7591
          45.7591
          69.4269
          69.4276
          69.428
          69.4281
          45.7591
          45.7591
          69.7284
          69.7285
          69.7286
          69.7286
          45.7591
          45.7591
          69.7662
          69.7662
          69.7661
          69.766
          45.7591
          45.7591
          69.4999
          69.4998
          69.4995
          69.4989
          45.7591
          45.7591
          45.7591
          45.7591
          45.7591
          45.7591
          45.7591
          45.7591
          45.7591
          69.4407
          69.4415
          69.4421
          69.4423
          45.7591
          45.7591
          69.7379
          69.7381
          69.7384
          69.7385
          45.7591
          45.7591
          69.776
          69.776
          69.7758
          69.7756
          45.7591
          45.7591
          69.5133
          69.5131
          69.5125
          69.5119
          45.7591
          45.7591
          45.7591
          45.7591
          45.7591
          45.7591
          45.7591
          45.7591
          45.7591
          69.4546
          69.4557
          69.4571
          69.4577
          45.7591
          45.7591
          69.7473
          69.7478
          69.7488
          69.7492
          45.7591
          45.7591
          69.7865
          69.7863
          69.7856
          69.7852
          45.7591
          45.7591
          69.5277
          69.5272
          69.5258
          69.5249
          45.7591
          45.7591
          45.7591
          45.7591
          45.7591
          45.7591
          45.7591
          45.7591
          45.7591
          69.4673
          69.4697
          69.4734
          69.4753
          45.7591
          45.7591
          69.7556
          69.7573
          69.7603
          69.7618
          45.7591
          45.7591
          69.7985
          69.7974
          69.7954
          69.7943
          45.7591
          45.7591
          69.5444
          69.5425
          69.5389
          69.5366
          45.7591
          45.7591
          45.7591
          45.7591
          45.7591
          45.7591
          45.7591
          45.7591
          45.7591
          69.4758
          69.4807
          69.4937
          69.4983
          45.7591
          45.7591
          69.7604
          69.7643
          69.775
          69.7788
          45.7591
          45.7591
          69.8135
          69.811
          69.8037
          69.801
          45.7591
          45.7591
          69.5664
          69.5618
          69.549
          69.5442
          45.7591
          45.7591
          45.7591
          45.7591
          45.7591
          69.2674
          69.3324
          69.3781
          69.4195
          69.4644
          69.4885
          69.5137
          69.5507
          69.6274
          69.685
          69.7439
          69.7709
          69.7921
          69.8154
          69.8502
          69.8577
          69.8411
          69.8267
          69.8122
          69.7923
          69.7441
          69.6912
          69.6173
          69.581
          69.5559
          69.5316
          69.4864
          69.4462
          69.405
          69.3595
          69.2944
          69.2939
          69.3387
          69.3804
          69.4202
          69.4575
          69.4931
          69.5298
          69.5758
          69.6293
          69.6872
          69.7383
          69.7808
          69.8131
          69.8398
          69.8587
          69.8662
          69.8611
          69.8467
          69.8252
          69.7925
          69.7483
          69.6943
          69.6421
          69.5967
          69.56
          69.5241
          69.4866
          69.447
          69.4075
          69.3658
          69.321
          69.3234
          69.3508
          69.3841
          69.4206
          69.458
          69.4964
          69.5377
          69.5837
          69.6352
          69.6905
          69.7488
          69.8008
          69.8391
          69.8666
          69.884
          69.8909
          69.8871
          69.8729
          69.8482
          69.8112
          69.7595
          69.7025
          69.6505
          69.6044
          69.5629
          69.5242
          69.486
          69.4482
          69.4113
          69.3779
          69.3505
          69.3451
          69.3558
          69.3858
          69.4211
          69.4585
          69.4977
          69.5398
          69.5861
          69.6371
          69.6926
          69.7561
          69.814
          69.8542
          69.8822
          69.8995
          69.9063
          69.9026
          69.8883
          69.8627
          69.824
          69.7672
          69.7056
          69.6532
          69.6065
          69.5641
          69.5244
          69.4861
          69.4487
          69.4132
          69.383
          69.3722
        </DataArray>
      </PointData>
      <CellData>
      </CellData>
      <Points>
        <DataArray type="Float32" NumberOfComponents="3" format="ascii">
          0.039 0.00195 0.0
          0.0377 0.00195 0.0
          0.0364 0.00195 0.0
          0.0351 0.00195 0.0
          0.0338 0.00195 0.0
          0.0325 0.00195 0.0
          0.0312 0.00195 0.0
          0.0299 0.00195 0.0
          0.0286 0.00195 0.0
          0.0273 0.00195 0.0
          0.026 0.00195 0.0
          0.0247 0.00195 0.0
          0.0234 0.00195 0.0
          0.0221 0.00195 0.0
          0.0208 0.00195 0.0
          0.0195 0.00195 0.0
          0.0182 0.00195 0.0
          0.0169 0.00195 0.0
          0.0156 0.00195 0.0
          0.0143 0.00195 0.0
          0.013 0.00195 0.0
          0.0117 0.00195 0.0
          0.0104 0.00195 0.0
          0.0091 0.00195 0.0
          0.0078 0.00195 0.0
          0.0065 0.00195 0.0
          0.0052 0.00195 0.0
          0.0039 0.00195 0.0
          0.0026 0.00195 0.0
          0.0013 0.00195 0.0
          0 0.00195 0.0
          0.039 0.00065 0.0
          0.0377 0.00065 0.0
          0.0364 0.00065 0.0
          0.0351 0.00065 0.0
          0.0338 0.00065 0.0
          0.0325 0.00065 0.0
          0.0312 0.00065 0.0
          0.0299 0.00065 0.0
          0.0286 0.00065 0.0
          0.0273 0.00065 0.0
          0.026 0.00065 0.0
          0.0247 0.00065 0.0
          0.0234 0.00065 0.0
          0.0221 0.00065 0.0
          0.0208 0.00065 0.0
          0.0195 0.00065 0.0
          0.0182 0.00065 0.0
          0.0169 0.00065 0.0
          0.0156 0.00065 0.0
          0.0143 0.00065 0.0
          0.013 0.00065 0.0
          0.0117 0.00065 0.0
          0.0104 0.00065 0.0
          0.0091 0.00065 0.0
          0.0078 0.00065 0.0
          0.0065 0.00065 0.0
          0.0052 0.00065 0.0
          0.0039 0.00065 0.0
          0.0026 0.00065 0.0
          0.0013 0.00065 0.0
          0 0.00065 0.0
          0.039 -0.00065 0.0
          0.0377 -0.00065 0.0
          0.0364 -0.00065 0.0
          0.0351 -0.00065 0.0
          0.0338 -0.00065 0.0
          0.0325 -0.00065 0.0
          0.0312 -0.00065 0.0
          0.0299 -0.00065 0.0
          0.0286 -0.00065 0.0
          0.0273 -0.00065 0.0
          0.026 -0.00065 0.0
          0.0247 -0.00065 0.0
          0.0234 -0.00065 0.0
          0.0221 -0.00065 0.0
          0.0208 -0.00065 0.0
          0.0195 -0.00065 0.0
          0.0182 -0.00065 0.0
          0.0169 -0.00065 0.0
          0.0156 -0.00065 0.0
          0.0143 -0.00065 0.0
          0.013 -0.00065 0.0
          0.0117 -0.00065 0.0
          0.0104 -0.00065 0.0
          0.0091 -0.00065 0.0
          0.0078 -0.00065 0.0
          0.0065 -0.00065 0.0
          0.0052 -0.00065 0.0
          0.0039 -0.00065 0.0
          0.0026 -0.00065 0.0
          0.0013 -0.00065 0.0
          0 -0.00065 0.0
          0.039 -0.00195 0.0
          0.0377 -0.00195 0.0
          0.0364 -0.00195 0.0
          0.0351 -0.00195 0.0
          0.0338 -0.00195 0.0
          0.0325 -0.00195 0.0
          0.0312 -0.00195 0.0
          0.0299 -0.00195 0.0
          0.0286 -0.00195 0.0
          0.0273 -0.00195 0.0
          0.026 -0.00195 0.0
          0.0247 -0.00195 0.0
          0.0234 -0.00195 0.0
          0.0221 -0.00195 0.0
          0.0208 -0.00195 0.0
          0.0195 -0.00195 0.0
          0.0182 -0.00195 0.0
          0.0169 -0.00195 0.0
          0.0156 -0.00195 0.0
          0.0143 -0.00195 0.0
          0.013 -0.00195 0.0
          0.0117 -0.00195 0.0
          0.0104 -0.00195 0.0
          0.0091 -0.00195 0.0
          0.0078 -0.00195 0.0
          0.0065 -0.00195 0.0
          0.0052 -0.00195 0.0
          0.0039 -0.00195 0.0
          0.0026 -0.00195 0.0
          0.0013 -0.00195 0.0
          0 -0.00195 0.0
          0.039 -0.00325 0.0
          0.0377 -0.00325 0.0
          0.0364 -0.00325 0.0
          0.0351 -0.00325 0.0
          0.0338 -0.00325 0.0
          0.0325 -0.00325 0.0
          0.0312 -0.00325 0.0
          0.0299 -0.00325 0.0
          0.0286 -0.00325 0.0
          0.0273 -0.00325 0.0
          0.026 -0.00325 0.0
          0.0247 -0.00325 0.0
          0.0234 -0.00325 0.0
          0.0221 -0.00325 0.0
          0.0208 -0.00325 0.0
          0.0195 -0.00325 0.0
          0.0182 -0.00325 0.0
          0.0169 -0.00325 0.0
          0.0156 -0.00325 0.0
          0.0143 -0.00325 0.0
          0.013 -0.00325 0.0
          0.0117 -0.00325 0.0
          0.0104 -0.00325 0.0
          0.0091 -0.00325 0.0
          0.0078 -0.00325 0.0
          0.0065 -0.00325 0.0
          0.0052 -0.00325 0.0
          0.0039 -0.00325 0.0
          0.0026 -0.00325 0.0
          0.0013 -0.00325 0.0
          0 -0.00325 0.0
          0.039 -0.00455 0.0
          0.0377 -0.00455 0.0
          0.0364 -0.00455 0.0
          0.0351 -0.00455 0.0
          0.0338 -0.00455 0.0
          0.0325 -0.00455 0.0
          0.0312 -0.00455 0.0
          0.0299 -0.00455 0.0
          0.0286 -0.00455 0.0
          0.0273 -0.00455 0.0
          0.026 -0.00455 0.0
          0.0247 -0.00455 0.0
          0.0234 -0.00455 0.0
          0.0221 -0.00455 0.0
          0.0208 -0.00455 0.0
          0.0195 -0.00455 0.0
          0.0182 -0.00455 0.0
          0.0169 -0.00455 0.0
          0.0156 -0.00455 0.0
          0.0143 -0.00455 0.0
          0.013 -0.00455 0.0
          0.0117 -0.00455 0.0
          0.0104 -0.00455 0.0
          0.0091 -0.00455 0.0
          0.0078 -0.00455 0.0
          0.0065 -0.00455 0.0
          0.0052 -0.00455 0.0
          0.0039 -0.00455 0.0
          0.0026 -0.00455 0.0
          0.0013 -0.00455 0.0
          0 -0.00455 0.0
          0.039 -0.00585 0.0
          0.0377 -0.00585 0.0
          0.0364 -0.00585 0.0
          0.0351 -0.00585 0.0
          0.0338 -0.00585 0.0
          0.0325 -0.00585 0.0
          0.0312 -0.00585 0.0
          0.0299 -0.00585 0.0
          0.0286 -0.00585 0.0
          0.0273 -0.00585 0.0
          0.026 -0.00585 0.0
          0.0247 -0.00585 0.0
          0.0234 -0.00585 0.0
          0.0221 -0.00585 0.0
          0.0208 -0.00585 0.0
          0.0195 -0.00585 0.0
          0.0182 -0.00585 0.0
          0.0169 -0.00585 0.0
          0.0156 -0.00585 0.0
          0.0143 -0.00585 0.0
          0.013 -0.00585 0.0
          0.0117 -0.00585 0.0
          0.0104 -0.00585 0.0
          0.0091 -0.00585 0.0
          0.0078 -0.00585 0.0
          0.0065 -0.00585 0.0
          0.0052 -0.00585 0.0
          0.0039 -0.00585 0.0
          0.0026 -0.00585 0.0
          0.0013 -0.00585 0.0
          0 -0.00585 0.0
          0.039 -0.00715 0.0
          0.0377 -0.00715 0.0
          0.0364 -0.00715 0.0
          0.0351 -0.00715 0.0
          0.0338 -0.00715 0.0
          0.0325 -0.00715 0.0
          0.0312 -0.00715 0.0
          0.0299 -0.00715 0.0
          0.0286 -0.00715 0.0
          0.0273 -0.00715 0.0
          0.026 -0.00715 0.0
          0.0247 -0.00715 0.0
          0.0234 -0.00715 0.0
          0.0221 -0.00715 0.0
          0.0208 -0.00715 0.0
          0.0195 -0.00715 0.0
          0.0182 -0.00715 0.0
          0.0169 -0.00715 0.0
          0.0156 -0.00715 0.0
          0.0143 -0.00715 0.0
          0.013 -0.00715 0.0
          0.0117 -0.00715 0.0
          0.0104 -0.00715 0.0
          0.0091 -0.00715 0.0
          0.0078 -0.00715 0.0
          0.0065 -0.00715 0.0
          0.0052 -0.00715 0.0
          0.0039 -0.00715 0.0
          0.0026 -0.00715 0.0
          0.0013 -0.00715 0.0
          0 -0.00715 0.0
          0.039 -0.00845 0.0
          0.0377 -0.00845 0.0
          0.0364 -0.00845 0.0
          0.0351 -0.00845 0.0
          0.0338 -0.00845 0.0
          0.0325 -0.00845 0.0
          0.0312 -0.00845 0.0
          0.0299 -0.00845 0.0
          0.0286 -0.00845 0.0
          0.0273 -0.00845 0.0
          0.026 -0.00845 0.0
          0.0247 -0.00845 0.0
          0.0234 -0.00845 0.0
          0.0221 -0.00845 0.0
          0.0208 -0.00845 0.0
          0.0195 -0.00845 0.0
          0.0182 -0.00845 0.0
          0.0169 -0.00845 0.0
          0.0156 -0.00845 0.0
          0.0143 -0.00845 0.0
          0.013 -0.00845 0.0
          0.0117 -0.00845 0.0
          0.0104 -0.00845 0.0
          0.0091 -0.00845 0.0
          0.0078 -0.00845 0.0
          0.0065 -0.00845 0.0
          0.0052 -0.00845 0.0
          0.0039 -0.00845 0.0
          0.0026 -0.00845 0.0
          0.0013 -0.00845 0.0
          0 -0.00845 0.0
          0.039 -0.00975 0.0
          0.0377 -0.00975 0.0
          0.0364 -0.00975 0.0
          0.0351 -0.00975 0.0
          0.0338 -0.00975 0.0
          0.0325 -0.00975 0.0
          0.0312 -0.00975 0.0
          0.0299 -0.00975 0.0
          0.0286 -0.00975 0.0
          0.0273 -0.00975 0.0
          0.026 -0.00975 0.0
          0.0247 -0.00975 0.0
          0.0234 -0.00975 0.0
          0.0221 -0.00975 0.0
          0.0208 -0.00975 0.0
          0.0195 -0.00975 0.0
          0.0182 -0.00975 0.0
          0.0169 -0.00975 0.0
          0.0156 -0.00975 0.0
          0.0143 -0.00975 0.0
          0.013 -0.00975 0.0
          0.0117 -0.00975 0.0
          0.0104 -0.00975 0.0
          0.0091 -0.00975 0.0
          0.0078 -0.00975 0.0
          0.0065 -0.00975 0.0
          0.0052 -0.00975 0.0
          0.0039 -0.00975 0.0
          0.0026 -0.00975 0.0
          0.0013 -0.00975 0.0
          0 -0.00975 0.0
          0.039 -0.01105 0.0
          0.0377 -0.01105 0.0
          0.0364 -0.01105 0.0
          0.0351 -0.01105 0.0
          0.0338 -0.01105 0.0
          0.0325 -0.01105 0.0
          0.0312 -0.01105 0.0
          0.0299 -0.01105 0.0
          0.0286 -0.01105 0.0
          0.0273 -0.01105 0.0
          0.026 -0.01105 0.0
          0.0247 -0.01105 0.0
          0.0234 -0.01105 0.0
          0.0221 -0.01105 0.0
          0.0208 -0.01105 0.0
          0.0195 -0.01105 0.0
          0.0182 -0.01105 0.0
          0.0169 -0.01105 0.0
          0.0156 -0.01105 0.0
          0.0143 -0.01105 0.0
          0.013 -0.01105 0.0
          0.0117 -0.01105 0.0
          0.0104 -0.01105 0.0
          0.0091 -0.01105 0.0
          0.0078 -0.01105 0.0
          0.0065 -0.01105 0.0
          0.0052 -0.01105 0.0
          0.0039 -0.01105 0.0
          0.0026 -0.01105 0.0
          0.0013 -0.01105 0.0
          0 -0.01105 0.0
          0.039 -0.01235 0.0
          0.0377 -0.01235 0.0
          0.0364 -0.01235 0.0
          0.0351 -0.01235 0.0
          0.0338 -0.01235 0.0
          0.0325 -0.01235 0.0
          0.0312 -0.01235 0.0
          0.0299 -0.01235 0.0
          0.0286 -0.01235 0.0
          0.0273 -0.01235 0.0
          0.026 -0.01235 0.0
          0.0247 -0.01235 0.0
          0.0234 -0.01235 0.0
          0.0221 -0.01235 0.0
          0.0208 -0.01235 0.0
          0.0195 -0.01235 0.0
          0.0182 -0.01235 0.0
          0.0169 -0.01235 0.0
          0.0156 -0.01235 0.0
          0.0143 -0.01235 0.0
          0.013 -0.01235 0.0
          0.0117 -0.01235 0.0
          0.0104 -0.01235 0.0
          0.0091 -0.01235 0.0
          0.0078 -0.01235 0.0
          0.0065 -0.01235 0.0
          0.0052 -0.01235 0.0
          0.0039 -0.01235 0.0
          0.0026 -0.01235 0.0
          0.0013 -0.01235 0.0
          0 -0.01235 0.0
          0.039 -0.01365 0.0
          0.0377 -0.01365 0.0
          0.0364 -0.01365 0.0
          0.0351 -0.01365 0.0
          0.0338 -0.01365 0.0
          0.0325 -0.01365 0.0
          0.0312 -0.01365 0.0
          0.0299 -0.01365 0.0
          0.0286 -0.01365 0.0
          0.0273 -0.01365 0.0
          0.026 -0.01365 0.0
          0.0247 -0.01365 0.0
          0.0234 -0.01365 0.0
          0.0221 -0.01365 0.0
          0.0208 -0.01365 0.0
          0.0195 -0.01365 0.0
          0.0182 -0.01365 0.0
          0.0169 -0.01365 0.0
          0.0156 -0.01365 0.0
          0.0143 -0.01365 0.0
          0.013 -0.01365 0.0
          0.0117 -0.01365 0.0
          0.0104 -0.01365 0.0
          0.0091 -0.01365 0.0
          0.0078 -0.01365 0.0
          0.0065 -0.01365 0.0
          0.0052 -0.01365 0.0
          0.0039 -0.01365 0.0
          0.0026 -0.01365 0.0
          0.0013 -0.01365 0.0
          0 -0.01365 0.0
          0.039 -0.01495 0.0
          0.0377 -0.01495 0.0
          0.0364 -0.01495 0.0
          0.0351 -0.01495 0.0
          0.0338 -0.01495 0.0
          0.0325 -0.01495 0.0
          0.0312 -0.01495 0.0
          0.0299 -0.01495 0.0
          0.0286 -0.01495 0.0
          0.0273 -0.01495 0.0
          0.026 -0.01495 0.0
          0.0247 -0.01495 0.0
          0.0234 -0.01495 0.0