<?xml version="1.0"?>
<VTKFile type="UnstructuredGrid" version="0.1" byte_order="LittleEndian">
  <UnstructuredGrid>
    <Piece NumberOfPoints="961" NumberOfCells="900">
      <PointData Scalars="Temperature">
        <DataArray type="Float32" Name="Temperature" format="ascii">
          51.5532
          51.5532
          51.5532
          51.5532
          51.5532
          51.5532
          51.5532
          51.5532
          51.5532
          51.5532
          51.5532
          51.5532
          51.5532
          51.5532
          51.5532
          51.5532
          51.5532
          51.5532
          51.5532
          51.5532
          51.5532
          51.5532
          51.5532
          51.5532
          51.5532
          51.5532
          51.5532
          51.5532
          51.5532
          51.5532
          51.5532
          51.5532
          51.5532
          51.5532
          51.5532
          51.5532
          51.5532
          51.5532
          51.5532
          51.5532
          51.5532
          51.5532
          51.5532
          51.5532
          51.5532
          51.5532
          51.5532
          51.5532
          51.5532
          51.5532
          51.5532
          51.5532
          51.5532
          51.5532
          51.5532
          51.5532
          51.5532
          51.5532
          51.5532
          51.5532
          51.5532
          51.5532
          51.5532
          51.5532
          51.5532
          51.5532
          51.5532
          51.5532
          51.5532
          51.5532
          51.5532
          51.5532
          51.5532
          51.5532
          51.5532
          51.5532
          51.5532
          51.5532
          51.5532
          51.5532
          51.5532
          51.5532
          51.5532
          51.5532
          51.5532
          51.5532
          51.5532
          51.5532
          51.5532
          51.5532
          51.5532
          51.5532
          51.5532
          51.5532
          51.5532
          51.5532
          51.5532
          80.6139
          80.6165
          80.6171
          80.6158
          51.5532
          51.5532
          80.9992
          81.0007
          81.0007
          80.9992
          51.5532
          51.5532
          81.0378
          81.0393
          81.0393
          81.0378
          51.5532
          51.5532
          80.7012
          80.7025
          80.702
          80.6996
          51.5532
          51.5532
          51.5532
          51.5532
          51.5532
          51.5532
          51.5532
          51.5532
          51.5532
          80.6175
          80.6185
          80.619
          80.6189
          51.5532
          51.5532
          81.0022
          81.0025
          81.0025
          81.0022
          51.5532
          51.5532
          81.0408
          81.041
          81.041
          81.0407
          51.5532
          51.5532
          80.7043
          80.7044
          80.704
          80.7031
          51.5532
          51.5532
          51.5532
          51.5532
          51.5532
          51.5532
          51.5532
          51.5532
          51.5532
          80.6208
          80.6216
          80.6221
          80.6221
          51.5532
          51.5532
          81.0048
          81.005
          81.005
          81.0048
          51.5532
          51.5532
          81.0434
          81.0436
          81.0436
          81.0434
          51.5532
          51.5532
          80.7074
          80.7074
          80.707
          80.7063
          51.5532
          51.5532
          51.5532
          51.5532
          51.5532
          51.5532
          51.5532
          51.5532
          51.5532
          80.6245
          80.6253
          80.6257
          80.6258
          51.5532
          51.5532
          81.0077
          81.0079
          81.0079
          81.0077
          51.5532
          51.5532
          81.0463
          81.0464
          81.0464
          81.0463
          51.5532
          51.5532
          80.7109
          80.7109
          80.7106
          80.7099
          51.5532
          51.5532
          51.5532
          51.5532
          51.5532
          51.5532
          51.5532
          51.5532
          51.5532
          80.6287
          80.6295
          80.6299
          80.63
          51.5532
          51.5532
          81.0109
          81.011
          81.011
          81.0109
          51.5532
          51.5532
          81.0495
          81.0496
          81.0496
          81.0495
          51.5532
          51.5532
          80.715
          80.7149
          80.7146
          80.7139
          51.5532
          51.5532
          51.5532
          51.5532
          51.5532
          51.5532
          51.5532
          51.5532
          51.5532
          80.6334
          80.6342
          80.6346
          80.6347
          51.5532
          51.5532
          81.0142
          81.0143
          81.0143
          81.0142
          51.5532
          51.5532
          81.0528
          81.0529
          81.0529
          81.0528
          51.5532
          51.5532
          80.7194
          80.7194
          80.7191
          80.7184
          51.5532
          51.5532
          51.5532
          51.5532
          51.5532
          51.5532
          51.5532
          51.5532
          51.5532
          80.6386
          80.6394
          80.6398
          80.6399
          51.5532
          51.5532
          81.0178
          81.0179
          81.0179
          81.0178
          51.5532
          51.5532
          81.0564
          81.0565
          81.0565
          81.0564
          51.5532
          51.5532
          80.7244
          80.7244
          80.724
          80.7234
          51.5532
          51.5532
          51.5532
          51.5532
          51.5532
          51.5532
          51.5532
          51.5532
          51.5532
          80.6444
          80.6451
          80.6455
          80.6456
          51.5532
          51.5532
          81.0217
          81.0218
          81.0218
          81.0217
          51.5532
          51.5532
          81.0603
          81.0604
          81.0604
          81.0603
          51.5532
          51.5532
          80.7298
          80.7297
          80.7294
          80.7288
          51.5532
          51.5532
          51.5532
          51.5532
          51.5532
          51.5532
          51.5532
          51.5532
          51.5532
          80.6506
          80.6513
          80.6518
          80.6518
          51.5532
          51.5532
          81.0257
          81.0258
          81.0258
          81.0258
          51.5532
          51.5532
          81.0644
          81.0644
          81.0644
          81.0643
          51.5532
          51.5532
          80.7356
          80.7356
          80.7352
          80.7346
          51.5532
          51.5532
          51.5532
          51.5532
          51.5532
          51.5532
          51.5532
          51.5532
          51.5532
          80.6573
          80.6581
          80.6585
          80.6585
          51.5532
          51.5532
          81.0301
          81.0302
          81.0302
          81.0301
          51.5532
          51.5532
          81.0687
          81.0688
          81.0688
          81.0687
          51.5532
          51.5532
          80.7419
          80.7419
          80.7415
          80.7409
          51.5532
          51.5532
          51.5532
          51.5532
          51.5532
          51.5532
          51.5532
          51.5532
          51.5532
          80.6645
          80.6653
          80.6657
          80.6658
          51.5532
          51.5532
          81.0346
          81.0347
          81.0347
          81.0346
          51.5532
          51.5532
          81.0732
          81.0733
          81.0733
          81.0732
          51.5532
          51.5532
          80.7486
          80.7486
          80.7483
          80.7476
          51.5532
          51.5532
          51.5532
          51.5532
          51.5532
          51.5532
          51.5532
          51.5532
          51.5532
          80.6722
          80.673
          80.6734
          80.6735
          51.5532
          51.5532
          81.0394
          81.0395
          81.0395
          81.0394
          51.5532
          51.5532
          81.078
          81.0781
          81.0781
          81.078
          51.5532
          51.5532
          80.7558
          80.7558
          80.7555
          80.7548
          51.5532
          51.5532
          51.5532
          51.5532
          51.5532
          51.5532
          51.5532
          51.5532
          51.5532
          80.6805
          80.6812
          80.6817
          80.6817
          51.5532
          51.5532
          81.0444
          81.0445
          81.0445
          81.0444
          51.5532
          51.5532
          81.083
          81.0831
          81.0831
          81.083
          51.5532
          51.5532
          80.7635
          80.7634
          80.7631
          80.7625
          51.5532
          51.5532
          51.5532
          51.5532
          51.5532
          51.5532
          51.5532
          51.5532
          51.5532
          80.6892
          80.69
          80.6904
          80.6904
          51.5532
          51.5532
          81.0496
          81.0497
          81.0497
          81.0496
          51.5532
          51.5532
          81.0883
          81.0884
          81.0884
          81.0883
          51.5532
          51.5532
          80.7715
          80.7715
          80.7712
          80.7705
          51.5532
          51.5532
          51.5532
          51.5532
          51.5532
          51.5532
          51.5532
          51.5532
          51.5532
          80.6984
          80.6992
          80.6996
          80.6997
          51.5532
          51.5532
          81.0551
          81.0552
          81.0552
          81.0551
          51.5532
          51.5532
          81.0938
          81.0938
          81.0938
          81.0937
          51.5532
          51.5532
          80.7801
          80.78
          80.7797
          80.7791
          51.5532
          51.5532
          51.5532
          51.5532
          51.5532
          51.5532
          51.5532
          51.5532
          51.5532
          80.7082
          80.7089
          80.7094
          80.7094
          51.5532
          51.5532
          81.0608
          81.0609
          81.0609
          81.0608
          51.5532
          51.5532
          81.0995
          81.0996
          81.0996
          81.0995
          51.5532
          51.5532
          80.7891
          80.789
          80.7887
          80.7881
          51.5532
          51.5532
          51.5532
          51.5532
          51.5532
          51.5532
          51.5532
          51.5532
          51.5532
          80.7184
          80.7192
          80.7196
          80.7196
          51.5532
          51.5532
          81.0668
          81.0669
          81.0669
          81.0668
          51.5532
          51.5532
          81.1054
          81.1055
          81.1055
          81.1054
          51.5532
          51.5532
          80.7985
          80.7985
          80.7981
          80.7975
          51.5532
          51.5532
          51.5532
          51.5532
          51.5532
          51.5532
          51.5532
          51.5532
          51.5532
          80.7291
          80.7299
          80.7303
          80.7304
          51.5532
          51.5532
          81.073
          81.0731
          81.0731
          81.073
          51.5532
          51.5532
          81.1116
          81.1117
          81.1117
          81.1116
          51.5532
          51.5532
          80.8084
          80.8083
          80.808
          80.8074
          51.5532
          51.5532
          51.5532
          51.5532
          51.5532
          51.5532
          51.5532
          51.5532
          51.5532
          80.7404
          80.7411
          80.7416
          80.7416
          51.5532
          51.5532
          81.0794
          81.0795
          81.0795
          81.0794
          51.5532
          51.5532
          81.1181
          81.1182
          81.1181
          81.118
          51.5532
          51.5532
          80.8187
          80.8187
          80.8183
          80.8177
          51.5532
          51.5532
          51.5532
          51.5532
          51.5532
          51.5532
          51.5532
          51.5532
          51.5532
          80.752
          80.7528
          80.7534
          80.7535
          51.5532
          51.5532
          81.0859
          81.0861
          81.0862
          81.0862
          51.5532
          51.5532
          81.1248
          81.1249
          81.1248
          81.1246
          51.5532
          51.5532
          80.8296
          80.8295
          80.8291
          80.8284
          51.5532
          51.5532
          51.5532
          51.5532
          51.5532
          51.5532
          51.5532
          51.5532
          51.5532
          80.764
          80.7649
          80.7657
          80.7659
          51.5532
          51.5532
          81.0926
          81.0929
          81.0932
          81.0933
          51.5532
          51.5532
          81.1318
          81.1318
          81.1316
          81.1314
          51.5532
          51.5532
          80.841
          80.8408
          80.8401
          80.8394
          51.5532
          51.5532
          51.5532
          51.5532
          51.5532
          51.5532
          51.5532
          51.5532
          51.5532
          80.7759
          80.7772
          80.7788
          80.7795
          51.5532
          51.5532
          81.0991
          81.0996
          81.1007
          81.1011
          51.5532
          51.5532
          81.1395
          81.1392
          81.1385
          81.1381
          51.5532
          51.5532
          80.8535
          80.8528
          80.8513
          80.8502
          51.5532
          51.5532
          51.5532
          51.5532
          51.5532
          51.5532
          51.5532
          51.5532
          51.5532
          80.7863
          80.789
          80.7933
          80.7955
          51.5532
          51.5532
          81.1041
          81.1059
          81.1091
          81.1107
          51.5532
          51.5532
          81.1484
          81.1473
          81.1451
          81.1438
          51.5532
          51.5532
          80.8683
          80.8661
          80.862
          80.8594
          51.5532
          51.5532
          51.5532
          51.5532
          51.5532
          51.5532
          51.5532
          51.5532
          51.5532
          80.7917
          80.7973
          80.8121
          80.8173
          51.5532
          51.5532
          81.1052
          81.1094
          81.1208
          81.1248
          51.5532
          51.5532
          81.1605
          81.1577
          81.1499
          81.147
          51.5532
          51.5532
          80.8889
          80.8837
          80.8691
          80.8637
          51.5532
          51.5532
          51.5532
          51.5532
          51.5532
          80.5298
          80.6099
          80.666
          80.7166
          80.7729
          80.8023
          80.831
          80.8713
          80.9537
          81.0165
          81.0825
          81.1127
          81.1353
          81.1586
          81.1928
          81.2006
          81.185
          81.1708
          81.1552
          81.1323
          81.0775
          81.0199
          80.9408
          80.9016
          80.8731
          80.8436
          80.7872
          80.7383
          80.6881
          80.6323
          80.5522
          80.5625
          80.6176
          80.6687
          80.7173
          80.7625
          80.8047
          80.8465
          80.8972
          80.9556
          81.0185
          81.0742
          81.12
          81.1543
          81.1819
          81.2012
          81.2089
          81.2038
          81.1888
          81.1657
          81.1299
          81.0816
          81.0229
          80.9663
          80.9163
          80.8748
          80.8325
          80.7873
          80.7393
          80.6911
          80.64
          80.5849
          80.5988
          80.6325
          80.6731
          80.7173
          80.762
          80.8069
          80.8539
          80.9051
          80.9614
          81.0212
          81.0836
          81.1387
          81.1793
          81.208
          81.2261
          81.2332
          81.2291
          81.214
          81.1873
          81.1475
          81.0922
          81.031
          80.9745
          80.9235
          80.8765
          80.8315
          80.7862
          80.7405
          80.6957
          80.655
          80.6213
          80.6256
          80.6386
          80.6752
          80.7177
          80.7622
          80.8079
          80.8558
          80.9074
          80.9632
          81.0232
          81.0905
          81.1516
          81.194
          81.2234
          81.2415
          81.2485
          81.2444
          81.229
          81.2015
          81.16
          81.0997
          81.034
          80.9771
          80.9254
          80.8774
          80.8314
          80.7861
          80.7411
          80.6981
          80.6612
          80.6481
        </DataArray>
      </PointData>
      <CellData>
      </CellData>
      <Points>
        <DataArray type="Float32" NumberOfComponents="3" format="ascii">
          0.039 0.00195 0.0
          0.0377 0.00195 0.0
          0.0364 0.00195 0.0
          0.0351 0.00195 0.0
          0.0338 0.00195 0.0
          0.0325 0.00195 0.0
          0.0312 0.00195 0.0
          0.0299 0.00195 0.0
          0.0286 0.00195 0.0
          0.0273 0.00195 0.0
          0.026 0.00195 0.0
          0.0247 0.00195 0.0
          0.0234 0.00195 0.0
          0.0221 0.00195 0.0
          0.0208 0.00195 0.0
          0.0195 0.00195 0.0
          0.0182 0.00195 0.0
          0.0169 0.00195 0.0
          0.0156 0.00195 0.0
          0.0143 0.00195 0.0
          0.013 0.00195 0.0
          0.0117 0.00195 0.0
          0.0104 0.00195 0.0
          0.0091 0.00195 0.0
          0.0078 0.00195 0.0
          0.0065 0.00195 0.0
          0.0052 0.00195 0.0
          0.0039 0.00195 0.0
          0.0026 0.00195 0.0
          0.0013 0.00195 0.0
          0 0.00195 0.0
          0.039 0.00065 0.0
          0.0377 0.00065 0.0
          0.0364 0.00065 0.0
          0.0351 0.00065 0.0
          0.0338 0.00065 0.0
          0.0325 0.00065 0.0
          0.0312 0.00065 0.0
          0.0299 0.00065 0.0
          0.0286 0.00065 0.0
          0.0273 0.00065 0.0
          0.026 0.00065 0.0
          0.0247 0.00065 0.0
          0.0234 0.00065 0.0
          0.0221 0.00065 0.0
          0.0208 0.00065 0.0
          0.0195 0.00065 0.0
          0.0182 0.00065 0.0
          0.0169 0.00065 0.0
          0.0156 0.00065 0.0
          0.0143 0.00065 0.0
          0.013 0.00065 0.0
          0.0117 0.00065 0.0
          0.0104 0.00065 0.0
          0.0091 0.00065 0.0
          0.0078 0.00065 0.0
          0.0065 0.00065 0.0
          0.0052 0.00065 0.0
          0.0039 0.00065 0.0
          0.0026 0.00065 0.0
          0.0013 0.00065 0.0
          0 0.00065 0.0
          0.039 -0.00065 0.0
          0.0377 -0.00065 0.0
          0.0364 -0.00065 0.0
          0.0351 -0.00065 0.0
          0.0338 -0.00065 0.0
          0.0325 -0.00065 0.0
          0.0312 -0.00065 0.0
          0.0299 -0.00065 0.0
          0.0286 -0.00065 0.0
          0.0273 -0.00065 0.0
          0.026 -0.00065 0.0
          0.0247 -0.00065 0.0
          0.0234 -0.00065 0.0
          0.0221 -0.00065 0.0
          0.0208 -0.00065 0.0
          0.0195 -0.00065 0.0
          0.0182 -0.00065 0.0
          0.0169 -0.00065 0.0
          0.0156 -0.00065 0.0
          0.0143 -0.00065 0.0
          0.013 -0.00065 0.0
          0.0117 -0.00065 0.0
          0.0104 -0.00065 0.0
          0.0091 -0.00065 0.0
          0.0078 -0.00065 0.0
          0.0065 -0.00065 0.0
          0.0052 -0.00065 0.0
          0.0039 -0.00065 0.0
          0.0026 -0.00065 0.0
          0.0013 -0.00065 0.0
          0 -0.00065 0.0
          0.039 -0.00195 0.0
          0.0377 -0.00195 0.0
          0.0364 -0.00195 0.0
          0.0351 -0.00195 0.0
          0.0338 -0.00195 0.0
          0.0325 -0.00195 0.0
          0.0312 -0.00195 0.0
          0.0299 -0.00195 0.0
          0.0286 -0.00195 0.0
          0.0273 -0.00195 0.0
          0.026 -0.00195 0.0
          0.0247 -0.00195 0.0
          0.0234 -0.00195 0.0
          0.0221 -0.00195 0.0
          0.0208 -0.00195 0.0
          0.0195 -0.00195 0.0
          0.0182 -0.00195 0.0
          0.0169 -0.00195 0.0
          0.0156 -0.00195 0.0
          0.0143 -0.00195 0.0
          0.013 -0.00195 0.0
          0.0117 -0.00195 0.0
          0.0104 -0.00195 0.0
          0.0091 -0.00195 0.0
          0.0078 -0.00195 0.0
          0.0065 -0.00195 0.0
          0.0052 -0.00195 0.0
          0.0039 -0.00195 0.0
          0.0026 -0.00195 0.0
          0.0013 -0.00195 0.0
          0 -0.00195 0.0
          0.039 -0.00325 0.0
          0.0377 -0.00325 0.0
          0.0364 -0.00325 0.0
          0.0351 -0.00325 0.0
          0.0338 -0.00325 0.0
          0.0325 -0.00325 0.0
          0.0312 -0.00325 0.0
          0.0299 -0.00325 0.0
          0.0286 -0.00325 0.0
          0.0273 -0.00325 0.0
          0.026 -0.00325 0.0
          0.0247 -0.00325 0.0
          0.0234 -0.00325 0.0
          0.0221 -0.00325 0.0
          0.0208 -0.00325 0.0
          0.0195 -0.00325 0.0
          0.0182 -0.00325 0.0
          0.0169 -0.00325 0.0
          0.0156 -0.00325 0.0
          0.0143 -0.00325 0.0
          0.013 -0.00325 0.0
          0.0117 -0.00325 0.0
          0.0104 -0.00325 0.0
          0.0091 -0.00325 0.0
          0.0078 -0.00325 0.0
          0.0065 -0.00325 0.0
          0.0052 -0.00325 0.0
          0.0039 -0.00325 0.0
          0.0026 -0.00325 0.0
          0.0013 -0.00325 0.0
          0 -0.00325 0.0
          0.039 -0.00455 0.0
          0.0377 -0.00455 0.0
          0.0364 -0.00455 0.0
          0.0351 -0.00455 0.0
          0.0338 -0.00455 0.0
          0.0325 -0.00455 0.0
          0.0312 -0.00455 0.0
          0.0299 -0.00455 0.0
          0.0286 -0.00455 0.0
          0.0273 -0.00455 0.0
          0.026 -0.00455 0.0
          0.0247 -0.00455 0.0
          0.0234 -0.00455 0.0
          0.0221 -0.00455 0.0
          0.0208 -0.00455 0.0
          0.0195 -0.00455 0.0
          0.0182 -0.00455 0.0
          0.0169 -0.00455 0.0
          0.0156 -0.00455 0.0
          0.0143 -0.00455 0.0
          0.013 -0.00455 0.0
          0.0117 -0.00455 0.0
          0.0104 -0.00455 0.0
          0.0091 -0.00455 0.0
          0.0078 -0.00455 0.0
          0.0065 -0.00455 0.0
          0.0052 -0.00455 0.0
          0.0039 -0.00455 0.0
          0.0026 -0.00455 0.0
          0.0013 -0.00455 0.0
          0 -0.00455 0.0
          0.039 -0.00585 0.0
          0.0377 -0.00585 0.0
          0.0364 -0.00585 0.0
          0.0351 -0.00585 0.0
          0.0338 -0.00585 0.0
          0.0325 -0.00585 0.0
          0.0312 -0.00585 0.0
          0.0299 -0.00585 0.0
          0.0286 -0.00585 0.0
          0.0273 -0.00585 0.0
          0.026 -0.00585 0.0
          0.0247 -0.00585 0.0
          0.0234 -0.00585 0.0
          0.0221 -0.00585 0.0
          0.0208 -0.00585 0.0
          0.0195 -0.00585 0.0
          0.0182 -0.00585 0.0
          0.0169 -0.00585 0.0
          0.0156 -0.00585 0.0
          0.0143 -0.00585 0.0
          0.013 -0.00585 0.0
          0.0117 -0.00585 0.0
          0.0104 -0.00585 0.0
          0.0091 -0.00585 0.0
          0.0078 -0.00585 0.0
          0.0065 -0.00585 0.0
          0.0052 -0.00585 0.0
          0.0039 -0.00585 0.0
          0.0026 -0.00585 0.0
          0.0013 -0.00585 0.0
          0 -0.00585 0.0
          0.039 -0.00715 0.0
          0.0377 -0.00715 0.0
          0.0364 -0.00715 0.0
          0.0351 -0.00715 0.0
          0.0338 -0.00715 0.0
          0.0325 -0.00715 0.0
          0.0312 -0.00715 0.0
          0.0299 -0.00715 0.0
          0.0286 -0.00715 0.0
          0.0273 -0.00715 0.0
          0.026 -0.00715 0.0
          0.0247 -0.00715 0.0
          0.0234 -0.00715 0.0
          0.0221 -0.00715 0.0
          0.0208 -0.00715 0.0
          0.0195 -0.00715 0.0
          0.0182 -0.00715 0.0
          0.0169 -0.00715 0.0
          0.0156 -0.00715 0.0
          0.0143 -0.00715 0.0
          0.013 -0.00715 0.0
          0.0117 -0.00715 0.0
          0.0104 -0.00715 0.0
          0.0091 -0.00715 0.0
          0.0078 -0.00715 0.0
          0.0065 -0.00715 0.0
          0.0052 -0.00715 0.0
          0.0039 -0.00715 0.0
          0.0026 -0.00715 0.0
          0.0013 -0.00715 0.0
          0 -0.00715 0.0
          0.039 -0.00845 0.0
          0.0377 -0.00845 0.0
          0.0364 -0.00845 0.0
          0.0351 -0.00845 0.0
          0.0338 -0.00845 0.0
          0.0325 -0.00845 0.0
          0.0312 -0.00845 0.0
          0.0299 -0.00845 0.0
          0.0286 -0.00845 0.0
          0.0273 -0.00845 0.0
          0.026 -0.00845 0.0
          0.0247 -0.00845 0.0
          0.0234 -0.00845 0.0
          0.0221 -0.00845 0.0
          0.0208 -0.00845 0.0
          0.0195 -0.00845 0.0
          0.0182 -0.00845 0.0
          0.0169 -0.00845 0.0
          0.0156 -0.00845 0.0
          0.0143 -0.00845 0.0
          0.013 -0.00845 0.0
          0.0117 -0.00845 0.0
          0.0104 -0.00845 0.0
          0.0091 -0.00845 0.0
          0.0078 -0.00845 0.0
          0.0065 -0.00845 0.0
          0.0052 -0.00845 0.0
          0.0039 -0.00845 0.0
          0.0026 -0.00845 0.0
          0.0013 -0.00845 0.0
          0 -0.00845 0.0
          0.039 -0.00975 0.0
          0.0377 -0.00975 0.0
          0.0364 -0.00975 0.0
          0.0351 -0.00975 0.0
          0.0338 -0.00975 0.0
          0.0325 -0.00975 0.0
          0.0312 -0.00975 0.0
          0.0299 -0.00975 0.0
          0.0286 -0.00975 0.0
          0.0273 -0.00975 0.0
          0.026 -0.00975 0.0
          0.0247 -0.00975 0.0
          0.0234 -0.00975 0.0
          0.0221 -0.00975 0.0
          0.0208 -0.00975 0.0
          0.0195 -0.00975 0.0
          0.0182 -0.00975 0.0
          0.0169 -0.00975 0.0
          0.0156 -0.00975 0.0
          0.0143 -0.00975 0.0
          0.013 -0.00975 0.0
          0.0117 -0.00975 0.0
          0.0104 -0.00975 0.0
          0.0091 -0.00975 0.0
          0.0078 -0.00975 0.0
          0.0065 -0.00975 0.0
          0.0052 -0.00975 0.0
          0.0039 -0.00975 0.0
          0.0026 -0.00975 0.0
          0.0013 -0.00975 0.0
          0 -0.00975 0.0
          0.039 -0.01105 0.0
          0.0377 -0.01105 0.0
          0.0364 -0.01105 0.0
          0.0351 -0.01105 0.0
          0.0338 -0.01105 0.0
          0.0325 -0.01105 0.0
          0.0312 -0.01105 0.0
          0.0299 -0.01105 0.0
          0.0286 -0.01105 0.0
          0.0273 -0.01105 0.0
          0.026 -0.01105 0.0
          0.0247 -0.01105 0.0
          0.0234 -0.01105 0.0
          0.0221 -0.01105 0.0
          0.0208 -0.01105 0.0
          0.0195 -0.01105 0.0
          0.0182 -0.01105 0.0
          0.0169 -0.01105 0.0
          0.0156 -0.01105 0.0
          0.0143 -0.01105 0.0
          0.013 -0.01105 0.0
          0.0117 -0.01105 0.0
          0.0104 -0.01105 0.0
          0.0091 -0.01105 0.0
          0.0078 -0.01105 0.0
          0.0065 -0.01105 0.0
          0.0052 -0.01105 0.0
          0.0039 -0.01105 0.0
          0.0026 -0.01105 0.0
          0.0013 -0.01105 0.0
          0 -0.01105 0.0
          0.039 -0.01235 0.0
          0.0377 -0.01235 0.0
          0.0364 -0.01235 0.0
          0.0351 -0.01235 0.0
          0.0338 -0.01235 0.0
          0.0325 -0.01235 0.0
          0.0312 -0.01235 0.0
          0.0299 -0.01235 0.0
          0.0286 -0.01235 0.0
          0.0273 -0.01235 0.0
          0.026 -0.01235 0.0
          0.0247 -0.01235 0.0
          0.0234 -0.01235 0.0
          0.0221 -0.01235 0.0
          0.0208 -0.01235 0.0
          0.0195 -0.01235 0.0
          0.0182 -0.01235 0.0
          0.0169 -0.01235 0.0
          0.0156 -0.01235 0.0
          0.0143 -0.01235 0.0
          0.013 -0.01235 0.0
          0.0117 -0.01235 0.0
          0.0104 -0.01235 0.0
          0.0091 -0.01235 0.0
          0.0078 -0.01235 0.0
          0.0065 -0.01235 0.0
          0.0052 -0.01235 0.0
          0.0039 -0.01235 0.0
          0.0026 -0.01235 0.0
          0.0013 -0.01235 0.0
          0 -0.01235 0.0
          0.039 -0.01365 0.0
          0.0377 -0.01365 0.0
          0.0364 -0.01365 0.0
          0.0351 -0.01365 0.0
          0.0338 -0.01365 0.0
          0.0325 -0.01365 0.0
          0.0312 -0.01365 0.0
          0.0299 -0.01365 0.0
          0.0286 -0.01365 0.0
          0.0273 -0.01365 0.0
          0.026 -0.01365 0.0
          0.0247 -0.01365 0.0
          0.0234 -0.01365 0.0
          0.0221 -0.01365 0.0
          0.0208 -0.01365 0.0
          0.0195 -0.01365 0.0
          0.0182 -0.01365 0.0
          0.0169 -0.01365 0.0
          0.0156 -0.01365 0.0
          0.0143 -0.01365 0.0
          0.013 -0.01365 0.0
          0.0117 -0.01365 0.0
          0.0104 -0.01365 0.0
          0.0091 -0.01365 0.0
          0.0078 -0.01365 0.0
          0.0065 -0.01365 0.0
          0.0052 -0.01365 0.0
          0.0039 -0.01365 0.0
          0.0026 -0.01365 0.0
          0.0013 -0.01365 0.0
          0 -0.01365 0.0
          0.039 -0.01495 0.0
          0.0377 -0.01495 0.0
          0.0364 -0.01495 0.0
          0.0351 -0.01495 0.0
          0.0338 -0.01495 0.0
          0.0325 -0.01495 0.0
          0.0312 -0.01495 0.0
          0.0299 -0.01495 0.0
          0.0286 -0.01495 0.0
          0.0273 -0.01495 0.0
          0.026 -0.01495 0.0
          0.0247 -0.01495 0.0