<?xml version="1.0"?>
<VTKFile type="UnstructuredGrid" version="0.1" byte_order="LittleEndian">
  <UnstructuredGrid>
    <Piece NumberOfPoints="961" NumberOfCells="900">
      <PointData Scalars="Temperature">
        <DataArray type="Float32" Name="Temperature" format="ascii">
          22.1237
          40.2938
          59.0973
          77.7894
          93.49
          103.842
          107.912
          107.813
          106.642
          106.919
          108.794
          110.605
          110.645
          108.939
          107.225
          107.236
          108.968
          110.689
          110.658
          108.859
          107.002
          106.76
          108.001
          108.303
          104.738
          95.4307
          81.4342
          65.14
          49.3904
          35.034
          21.8387
          39.7157
          335.778
          652.961
          970.694
          1245.62
          1417.64
          1479.4
          1463.73
          1435.34
          1439.48
          1478.61
          1516.59
          1517.19
          1480.79
          1444.31
          1444.5
          1481.3
          1517.93
          1517.47
          1479.66
          1440.83
          1437.2
          1466.64
          1484.95
          1430.87
          1275.43
          1029.12
          751.297
          484.729
          250.985
          34.6564
          55.8158
          608.081
          1208.13
          1923.82
          2504.64
          2873.03
          2933.21
          2828.04
          2711.49
          2718.58
          2849.5
          2978.37
          2978.97
          2852.65
          2726.35
          2726.81
          2853.78
          2980.51
          2980.07
          2851.42
          2720.97
          2714.76
          2832.63
          2940.54
          2887.84
          2549.7
          2024.32
          1390.22
          886.02
          449.742
          46.4702
          69.1741
          832.954
          1670.11
          2670.66
          4467.75
          4467.95
          4467.99
          4467.91
          3665.21
          3673.68
          4495.31
          4495.41
          4495.41
          4495.31
          3682.89
          3683.57
          4497.77
          4497.88
          4497.87
          4497.77
          3676.75
          3669.33
          4473.76
          4473.85
          4473.81
          4473.62
          2802.57
          1922.57
          1221.16
          617.452
          56.4707
          78.8931
          994.472
          1978.94
          3143.86
          4468.01
          4468.09
          4468.13
          4468.13
          4222.35
          4231.47
          4495.52
          4495.53
          4495.53
          4495.52
          4241.06
          4241.88
          4497.98
          4498
          4497.99
          4497.98
          4234.89
          4226.89
          4473.98
          4473.98
          4473.94
          4473.88
          3298.61
          2287.68
          1470
          745.571
          64.1868
          85.0108
          1092.36
          2148.31
          3278.82
          4468.24
          4468.3
          4468.34
          4468.34
          4397.46
          4406.57
          4495.69
          4495.69
          4495.69
          4495.69
          4416.39
          4417.21
          4498.15
          4498.16
          4498.16
          4498.15
          4410.11
          4402.12
          4474.19
          4474.18
          4474.15
          4474.1
          3454.66
          2499.82
          1632.02
          833.706
          69.5778
          88.308
          1143.31
          2221.65
          3333.1
          4468.48
          4468.54
          4468.57
          4468.58
          4452.58
          4461.67
          4495.86
          4495.86
          4495.86
          4495.86
          4471.53
          4472.36
          4498.32
          4498.32
          4498.32
          4498.32
          4465.23
          4457.27
          4474.42
          4474.41
          4474.38
          4474.33
          3524.77
          2604.1
          1726.75
          888.54
          73.0019
          89.8907
          1166.75
          2254.22
          3356.32
          4468.74
          4468.8
          4468.84
          4468.85
          4470.04
          4479.1
          4496.03
          4496.03
          4496.03
          4496.03
          4488.96
          4489.78
          4498.5
          4498.5
          4498.5
          4498.49
          4482.67
          4474.73
          4474.67
          4474.66
          4474.63
          4474.58
          3559.01
          2657.55
          1778.18
          920.079
          75.0058
          90.5961
          1177.29
          2268.72
          3366.61
          4469.03
          4469.09
          4469.12
          4469.14
          4475.7
          4484.72
          4496.2
          4496.2
          4496.21
          4496.2
          4494.55
          4495.37
          4498.67
          4498.67
          4498.67
          4498.67
          4488.29
          4480.38
          4474.94
          4474.93
          4474.9
          4474.85
          3576.54
          2685.39
          1805.7
          937.344
          76.1162
          90.915
          1182.03
          2275.23
          3371.29
          4469.34
          4469.4
          4469.43
          4469.45
          4477.66
          4486.63
          4496.38
          4496.38
          4496.38
          4496.38
          4496.42
          4497.24
          4498.84
          4498.84
          4498.84
          4498.84
          4490.2
          4482.33
          4475.22
          4475.21
          4475.19
          4475.14
          3585.75
          2700.05
          1820.34
          946.623
          76.7145
          91.059
          1184.18
          2278.21
          3373.51
          4469.67
          4469.73
          4469.77
          4469.78
          4478.47
          4487.39
          4496.55
          4496.55
          4496.55
          4496.55
          4497.13
          4497.95
          4499.01
          4499.01
          4499.01
          4499.01
          4490.95
          4483.12
          4475.53
          4475.52
          4475.49
          4475.45
          3590.7
          2707.86
          1828.15
          951.588
          77.0353
          91.1264
          1185.18
          2279.64
          3374.65
          4470.03
          4470.09
          4470.12
          4470.13
          4478.93
          4487.79
          4496.72
          4496.72
          4496.72
          4496.72
          4497.47
          4498.29
          4499.19
          4499.19
          4499.19
          4499.19
          4491.34
          4483.57
          4475.86
          4475.85
          4475.82
          4475.77
          3593.45
          2712.1
          1832.37
          954.267
          77.2083
          91.16
          1185.69
          2280.39
          3375.32
          4470.41
          4470.47
          4470.5
          4470.51
          4479.3
          4488.09
          4496.9
          4496.9
          4496.9
          4496.9
          4497.69
          4498.51
          4499.36
          4499.36
          4499.36
          4499.36
          4491.62
          4483.91
          4476.2
          4476.19
          4476.16
          4476.12
          3595.07
          2714.5
          1834.73
          955.757
          77.3044
          91.1793
          1185.99
          2280.86
          3375.81
          4470.81
          4470.87
          4470.9
          4470.91
          4479.64
          4488.35
          4497.07
          4497.07
          4497.07
          4497.07
          4497.88
          4498.7
          4499.53
          4499.53
          4499.53
          4499.53
          4491.88
          4484.22
          4476.56
          4476.55
          4476.52
          4476.48
          3596.14
          2715.99
          1836.16
          956.657
          77.3623
          91.1933
          1186.21
          2281.22
          3376.23
          4471.23
          4471.29
          4471.32
          4471.34
          4479.98
          4488.61
          4497.24
          4497.24
          4497.24
          4497.24
          4498.06
          4498.88
          4499.71
          4499.71
          4499.71
          4499.71
          4492.12
          4484.54
          4476.94
          4476.93
          4476.9
          4476.86
          3596.99
          2717.12
          1837.22
          957.317
          77.4047
          91.2074
          1186.43
          2281.59
          3376.67
          4471.68
          4471.74
          4471.77
          4471.78
          4480.34
          4488.88
          4497.42
          4497.42
          4497.42
          4497.42
          4498.24
          4499.06
          4499.88
          4499.88
          4499.88
          4499.88
          4492.37
          4484.86
          4477.34
          4477.33
          4477.3
          4477.25
          3597.87
          2718.26
          1838.3
          957.984
          77.4476
          91.2259
          1186.72
          2282.06
          3377.18
          4472.15
          4472.2
          4472.24
          4472.25
          4480.71
          4489.15
          4497.59
          4497.59
          4497.59
          4497.59
          4498.41
          4499.23
          4500.05
          4500.05
          4500.05
          4500.05
          4492.63
          4485.2
          4477.75
          4477.74
          4477.72
          4477.67
          3598.99
          2719.8
          1839.77
          958.906
          77.5065
          91.2593
          1187.21
          2282.8
          3377.89
          4472.64
          4472.7
          4472.73
          4472.74
          4481.1
          4489.43
          4497.76
          4497.76
          4497.76
          4497.76
          4498.59
          4499.41
          4500.23
          4500.23
          4500.23
          4500.23
          4492.89
          4485.54
          4478.19
          4478.18
          4478.15
          4478.1
          3600.71
          2722.28
          1842.2
          960.438
          77.607
          91.3136
          1188.14
          2284.14
          3379.04
          4473.15
          4473.21
          4473.24
          4473.26
          4481.5
          4489.72
          4497.94
          4497.94
          4497.94
          4497.94
          4498.76
          4499.58
          4500.4
          4500.4
          4500.4
          4500.4
          4493.16
          4485.9
          4478.64
          4478.63
          4478.6
          4478.56
          3603.59
          2726.66
          1846.54
          963.199
          77.778
          91.4746
          1190.05
          2286.85
          3381.14
          4473.69
          4473.75
          4473.78
          4473.79
          4481.91
          4490.02
          4498.11
          4498.11
          4498.11
          4498.11
          4498.94
          4499.76
          4500.58
          4500.58
          4500.58
          4500.58
          4493.43
          4486.28
          4479.11
          4479.1
          4479.07
          4479.03
          3608.71
          2734.67
          1854.58
          968.312
          78.1416
          91.6121
          1194.27
          2292.62
          3385.4
          4474.25
          4474.31
          4474.34
          4474.35
          4482.34
          4490.32
          4498.28
          4498.29
          4498.29
          4498.29
          4499.11
          4499.93
          4500.75
          4500.75
          4500.75
          4500.75
          4493.71
          4486.66
          4479.6
          4479.59
          4479.56
          4479.52
          3618.05
          2749.59
          1869.63
          978.007
          78.6237
          92.8693
          1203.33
          2305.38
          3394.48
          4474.83
          4474.89
          4474.92
          4474.94
          4482.79
          4490.63
          4498.46
          4498.46
          4498.46
          4498.46
          4499.29
          4500.12
          4500.93
          4500.93
          4500.93
          4500.92
          4494
          4487.06
          4480.1
          4480.09
          4480.07
          4480.02
          3635.35
          2777.55
          1898.18
          996.142
          80.448
          91.4564
          1225
          2333.44
          3414.54
          4475.43
          4475.49
          4475.53
          4475.54
          4483.26
          4490.95
          4498.63
          4498.63
          4498.64
          4498.64
          4499.49
          4500.31
          4501.11
          4501.1
          4501.1
          4501.1
          4494.29
          4487.47
          4480.63
          4480.62
          4480.59
          4480.54
          3667.34
          2830.21
          1952.08
          1032.24
          79.9268
          107.121
          1268.07
          2398.29
          3458.4
          4476.04
          4476.1
          4476.16
          4476.19
          4483.75
          4491.28
          4498.79
          4498.8
          4498.82
          4498.83
          4499.72
          4500.54
          4501.29
          4501.28
          4501.27
          4501.26
          4494.6
          4487.92
          4481.19
          4481.17
          4481.12
          4481.06
          3725.9
          2928.08
          2057.18
          1097.05
          96.9232
          59.1362
          1394.11
          2535.98
          3556.84
          4476.63
          4476.72
          4476.84
          4476.89
          4484.3
          4491.61
          4498.92
          4498.95
          4499.02
          4499.05
          4500.05
          4500.86
          4501.5
          4501.48
          4501.43
          4501.4
          4494.94
          4488.43
          4481.8
          4481.75
          4481.64
          4481.57
          3827.88
          3110.51
          2253.52
          1253.75
          50.7785
          323.458
          1579.84
          2880.98
          3751.29
          4477.1
          4477.29
          4477.59
          4477.76
          4484.97
          4491.96
          4498.94
          4499.06
          4499.26
          4499.38
          4500.61
          4501.4
          4501.78
          4501.7
          4501.55
          4501.47
          4495.33
          4489.09
          4482.57
          4482.41
          4482.12
          4481.94
          3989.38
          3424.63
          2677.47
          1479.53
          317.561
          -717.329
          2624.18
          3538.22
          4067.39
          4477.21
          4477.6
          4478.64
          4479.01
          4486.05
          4492.19
          4498.69
          4498.96
          4499.71
          4499.98
          4501.72
          4502.42
          4502.25
          4502.07
          4501.54
          4501.35
          4495.71
          4490.21
          4483.72
          4483.35
          4482.33
          4481.95
          4212.55
          3894.06
          3431.64
          2572.13
          -720.631
          4457.38
          4463.34
          4467.51
          4471.27
          4475.52
          4477.71
          4479.72
          4482.43
          4487.93
          4492.18
          4496.78
          4498.88
          4500.36
          4501.8
          4503.83
          4504.33
          4503.48
          4502.63
          4501.59
          4499.96
          4496.09
          4492.2
          4486.96
          4484.34
          4482.35
          4480.17
          4475.92
          4472.3
          4468.58
          4464.44
          4458.47
          4459.8
          4463.91
          4467.7
          4471.31
          4474.63
          4477.69
          4480.63
          4484.09
          4488.03
          4492.28
          4496.04
          4499.11
          4501.36
          4503.12
          4504.33
          4504.82
          4504.51
          4503.56
          4502.02
          4499.59
          4496.32
          4492.37
          4488.57
          4485.18
          4482.28
          4479.23
          4475.92
          4472.36
          4468.8
          4465.01
          4460.91
          4462.51
          4465.01
          4468.02
          4471.27
          4474.53
          4477.75
          4481.05
          4484.56
          4488.38
          4492.4
          4496.53
          4500.14
          4502.8
          4504.65
          4505.82
          4506.27
          4506
          4505
          4503.23
          4500.58
          4496.92
          4492.86
          4489.06
          4485.58
          4482.3
          4479.09
          4475.8
          4472.45
          4469.14
          4466.13
          4463.62
          4464.5
          4465.47
          4468.17
          4471.29
          4474.52
          4477.79
          4481.15
          4484.7
          4488.49
          4492.5
          4496.92
          4500.9
          4503.67
          4505.58
          4506.74
          4507.19
          4506.91
          4505.89
          4504.06
          4501.32
          4497.36
          4493.03
          4489.21
          4485.68
          4482.33
          4479.06
          4475.78
          4472.48
          4469.31
          4466.59
          4465.62
        </DataArray>
      </PointData>
      <CellData>
      </CellData>
      <Points>
        <DataArray type="Float32" NumberOfComponents="3" format="ascii">
          0.039 0.00195 0.0
          0.0377 0.00195 0.0
          0.0364 0.00195 0.0
          0.0351 0.00195 0.0
          0.0338 0.00195 0.0
          0.0325 0.00195 0.0
          0.0312 0.00195 0.0
          0.0299 0.00195 0.0
          0.0286 0.00195 0.0
          0.0273 0.00195 0.0
          0.026 0.00195 0.0
          0.0247 0.00195 0.0
          0.0234 0.00195 0.0
          0.0221 0.00195 0.0
          0.0208 0.00195 0.0
          0.0195 0.00195 0.0
          0.0182 0.00195 0.0
          0.0169 0.00195 0.0
          0.0156 0.00195 0.0
          0.0143 0.00195 0.0
          0.013 0.00195 0.0
          0.0117 0.00195 0.0
          0.0104 0.00195 0.0
          0.0091 0.00195 0.0
          0.0078 0.00195 0.0
          0.0065 0.00195 0.0
          0.0052 0.00195 0.0
          0.0039 0.00195 0.0
          0.0026 0.00195 0.0
          0.0013 0.00195 0.0
          0 0.00195 0.0
          0.039 0.00065 0.0
          0.0377 0.00065 0.0
          0.0364 0.00065 0.0
          0.0351 0.00065 0.0
          0.0338 0.00065 0.0
          0.0325 0.00065 0.0
          0.0312 0.00065 0.0
          0.0299 0.00065 0.0
          0.0286 0.00065 0.0
          0.0273 0.00065 0.0
          0.026 0.00065 0.0
          0.0247 0.00065 0.0
          0.0234 0.00065 0.0
          0.0221 0.00065 0.0
          0.0208 0.00065 0.0
          0.0195 0.00065 0.0
          0.0182 0.00065 0.0
          0.0169 0.00065 0.0
          0.0156 0.00065 0.0
          0.0143 0.00065 0.0
          0.013 0.00065 0.0
          0.0117 0.00065 0.0
          0.0104 0.00065 0.0
          0.0091 0.00065 0.0
          0.0078 0.00065 0.0
          0.0065 0.00065 0.0
          0.0052 0.00065 0.0
          0.0039 0.00065 0.0
          0.0026 0.00065 0.0
          0.0013 0.00065 0.0
          0 0.00065 0.0
          0.039 -0.00065 0.0
          0.0377 -0.00065 0.0
          0.0364 -0.00065 0.0
          0.0351 -0.00065 0.0
          0.0338 -0.00065 0.0
          0.0325 -0.00065 0.0
          0.0312 -0.00065 0.0
          0.0299 -0.00065 0.0
          0.0286 -0.00065 0.0
          0.0273 -0.00065 0.0
          0.026 -0.00065 0.0
          0.0247 -0.00065 0.0
          0.0234 -0.00065 0.0
          0.0221 -0.00065 0.0
          0.0208 -0.00065 0.0
          0.0195 -0.00065 0.0
          0.0182 -0.00065 0.0
          0.0169 -0.00065 0.0
          0.0156 -0.00065 0.0
          0.0143 -0.00065 0.0
          0.013 -0.00065 0.0
          0.0117 -0.00065 0.0
          0.0104 -0.00065 0.0
          0.0091 -0.00065 0.0
          0.0078 -0.00065 0.0
          0.0065 -0.00065 0.0
          0.0052 -0.00065 0.0
          0.0039 -0.00065 0.0
          0.0026 -0.00065 0.0
          0.0013 -0.00065 0.0
          0 -0.00065 0.0
          0.039 -0.00195 0.0
          0.0377 -0.00195 0.0
          0.0364 -0.00195 0.0
          0.0351 -0.00195 0.0
          0.0338 -0.00195 0.0
          0.0325 -0.00195 0.0
          0.0312 -0.00195 0.0
          0.0299 -0.00195 0.0
          0.0286 -0.00195 0.0
          0.0273 -0.00195 0.0
          0.026 -0.00195 0.0
          0.0247 -0.00195 0.0
          0.0234 -0.00195 0.0
          0.0221 -0.00195 0.0
          0.0208 -0.00195 0.0
          0.0195 -0.00195 0.0
          0.0182 -0.00195 0.0
          0.0169 -0.00195 0.0
          0.0156 -0.00195 0.0
          0.0143 -0.00195 0.0
          0.013 -0.00195 0.0
          0.0117 -0.00195 0.0
          0.0104 -0.00195 0.0
          0.0091 -0.00195 0.0
          0.0078 -0.00195 0.0
          0.0065 -0.00195 0.0
          0.0052 -0.00195 0.0
          0.0039 -0.00195 0.0
          0.0026 -0.00195 0.0
          0.0013 -0.00195 0.0
          0 -0.00195 0.0
          0.039 -0.00325 0.0
          0.0377 -0.00325 0.0
          0.0364 -0.00325 0.0
          0.0351 -0.00325 0.0
          0.0338 -0.00325 0.0
          0.0325 -0.00325 0.0
          0.0312 -0.00325 0.0
          0.0299 -0.00325 0.0
          0.0286 -0.00325 0.0
          0.0273 -0.00325 0.0
          0.026 -0.00325 0.0
          0.0247 -0.00325 0.0
          0.0234 -0.00325 0.0
          0.0221 -0.00325 0.0
          0.0208 -0.00325 0.0
          0.0195 -0.00325 0.0
          0.0182 -0.00325 0.0
          0.0169 -0.00325 0.0
          0.0156 -0.00325 0.0
          0.0143 -0.00325 0.0
          0.013 -0.00325 0.0
          0.0117 -0.00325 0.0
          0.0104 -0.00325 0.0
          0.0091 -0.00325 0.0
          0.0078 -0.00325 0.0
          0.0065 -0.00325 0.0
          0.0052 -0.00325 0.0
          0.0039 -0.00325 0.0
          0.0026 -0.00325 0.0
          0.0013 -0.00325 0.0
          0 -0.00325 0.0
          0.039 -0.00455 0.0
          0.0377 -0.00455 0.0
          0.0364 -0.00455 0.0
          0.0351 -0.00455 0.0
          0.0338 -0.00455 0.0
          0.0325 -0.00455 0.0
          0.0312 -0.00455 0.0
          0.0299 -0.00455 0.0
          0.0286 -0.00455 0.0
          0.0273 -0.00455 0.0
          0.026 -0.00455 0.0
          0.0247 -0.00455 0.0
          0.0234 -0.00455 0.0
          0.0221 -0.00455 0.0
          0.0208 -0.00455 0.0
          0.0195 -0.00455 0.0
          0.0182 -0.00455 0.0
          0.0169 -0.00455 0.0
          0.0156 -0.00455 0.0
          0.0143 -0.00455 0.0
          0.013 -0.00455 0.0
          0.0117 -0.00455 0.0
          0.0104 -0.00455 0.0
          0.0091 -0.00455 0.0
          0.0078 -0.00455 0.0
          0.0065 -0.00455 0.0
          0.0052 -0.00455 0.0
          0.0039 -0.00455 0.0
          0.0026 -0.00455 0.0
          0.0013 -0.00455 0.0
          0 -0.00455 0.0
          0.039 -0.00585 0.0
          0.0377 -0.00585 0.0
          0.0364 -0.00585 0.0
          0.0351 -0.00585 0.0
          0.0338 -0.00585 0.0
          0.0325 -0.00585 0.0
          0.0312 -0.00585 0.0
          0.0299 -0.00585 0.0
          0.0286 -0.00585 0.0
          0.0273 -0.00585 0.0
          0.026 -0.00585 0.0
          0.0247 -0.00585 0.0
          0.0234 -0.00585 0.0
          0.0221 -0.00585 0.0
          0.0208 -0.00585 0.0
          0.0195 -0.00585 0.0
          0.0182 -0.00585 0.0
          0.0169 -0.00585 0.0
          0.0156 -0.00585 0.0
          0.0143 -0.00585 0.0
          0.013 -0.00585 0.0
          0.0117 -0.00585 0.0
          0.0104 -0.00585 0.0
          0.0091 -0.00585 0.0
          0.0078 -0.00585 0.0
          0.0065 -0.00585 0.0
          0.0052 -0.00585 0.0
          0.0039 -0.00585 0.0
          0.0026 -0.00585 0.0
          0.0013 -0.00585 0.0
          0 -0.00585 0.0
          0.039 -0.00715 0.0
          0.0377 -0.00715 0.0
          0.0364 -0.00715 0.0
          0.0351 -0.00715 0.0
          0.0338 -0.00715 0.0
          0.0325 -0.00715 0.0
          0.0312 -0.00715 0.0
          0.0299 -0.00715 0.0
          0.0286 -0.00715 0.0
          0.0273 -0.00715 0.0
          0.026 -0.00715 0.0
          0.0247 -0.00715 0.0
          0.0234 -0.00715 0.0
          0.0221 -0.00715 0.0
          0.0208 -0.00715 0.0
          0.0195 -0.00715 0.0
          0.0182 -0.00715 0.0
          0.0169 -0.00715 0.0
          0.0156 -0.00715 0.0
          0.0143 -0.00715 0.0
          0.013 -0.00715 0.0
          0.0117 -0.00715 0.0
          0.0104 -0.00715 0.0
          0.0091 -0.00715 0.0
          0.0078 -0.00715 0.0
          0.0065 -0.00715 0.0
          0.0052 -0.00715 0.0
          0.0039 -0.00715 0.0
          0.0026 -0.00715 0.0
          0.0013 -0.00715 0.0
          0 -0.00715 0.0
          0.039 -0.00845 0.0
          0.0377 -0.00845 0.0
          0.0364 -0.00845 0.0
          0.0351 -0.00845 0.0
          0.0338 -0.00845 0.0
          0.0325 -0.00845 0.0
          0.0312 -0.00845 0.0
          0.0299 -0.00845 0.0
          0.0286 -0.00845 0.0
          0.0273 -0.00845 0.0
          0.026 -0.00845 0.0
          0.0247 -0.00845 0.0
          0.0234 -0.00845 0.0
          0.0221 -0.00845 0.0
          0.0208 -0.00845 0.0
          0.0195 -0.00845 0.0
          0.0182 -0.00845 0.0
          0.0169 -0.00845 0.0
          0.0156 -0.00845 0.0
          0.0143 -0.00845 0.0
          0.013 -0.00845 0.0
          0.0117 -0.00845 0.0
          0.0104 -0.00845 0.0
          0.0091 -0.00845 0.0
          0.0078 -0.00845 0.0
          0.0065 -0.00845 0.0
          0.0052 -0.00845 0.0
          0.0039 -0.00845 0.0
          0.0026 -0.00845 0.0
          0.0013 -0.00845 0.0
          0 -0.00845 0.0
          0.039 -0.00975 0.0
          0.0377 -0.00975 0.0
          0.0364 -0.00975 0.0
          0.0351 -0.00975 0.0
          0.0338 -0.00975 0.0
          0.0325 -0.00975 0.0
          0.0312 -0.00975 0.0
          0.0299 -0.00975 0.0
          0.0286 -0.00975 0.0
          0.0273 -0.00975 0.0
          0.026 -0.00975 0.0
          0.0247 -0.00975 0.0
          0.0234 -0.00975 0.0
          0.0221 -0.00975 0.0
          0.0208 -0.00975 0.0
          0.0195 -0.00975 0.0
          0.0182 -0.00975 0.0
          0.0169 -0.00975 0.0
          0.0156 -0.00975 0.0
          0.0143 -0.00975 0.0
          0.013 -0.00975 0.0
          0.0117 -0.00975 0.0
          0.0104 -0.00975 0.0
          0.0091 -0.00975 0.0
          0.0078 -0.00975 0.0
          0.0065 -0.00975 0.0
          0.0052 -0.00975 0.0
          0.0039 -0.00975 0.0
          0.0026 -0.00975 0.0
          0.0013 -0.00975 0.0
          0 -0.00975 0.0
          0.039 -0.01105 0.0
          0.0377 -0.01105 0.0
          0.0364 -0.01105 0.0
          0.0351 -0.01105 0.0
          0.0338 -0.01105 0.0
          0.0325 -0.01105 0.0
          0.0312 -0.01105 0.0
          0.0299 -0.01105 0.0
          0.0286 -0.01105 0.0
          0.0273 -0.01105 0.0
          0.026 -0.01105 0.0
          0.0247 -0.01105 0.0
          0.0234 -0.01105 0.0
          0.0221 -0.01105 0.0
          0.0208 -0.01105 0.0
          0.0195 -0.01105 0.0
          0.0182 -0.01105 0.0
          0.0169 -0.01105 0.0
          0.0156 -0.01105 0.0
          0.0143 -0.01105 0.0
          0.013 -0.01105 0.0
          0.0117 -0.01105 0.0
          0.0104 -0.01105 0.0
          0.0091 -0.01105 0.0
          0.0078 -0.01105 0.0
          0.0065 -0.01105 0.0
          0.0052 -0.01105 0.0
          0.0039 -0.01105 0.0
          0.0026 -0.01105 0.0
          0.0013 -0.01105 0.0
          0 -0.01105 0.0
          0.039 -0.01235 0.0
          0.0377 -0.01235 0.0
          0.0364 -0.01235 0.0
          0.0351 -0.01235 0.0
          0.0338 -0.01235 0.0
          0.0325 -0.01235 0.0
          0.0312 -0.01235 0.0
          0.0299 -0.01235 0.0
          0.0286 -0.01235 0.0
          0.0273 -0.01235 0.0
          0.026 -0.01235 0.0
          0.0247 -0.01235 0.0
          0.0234 -0.01235 0.0
          0.0221 -0.01235 0.0
          0.0208 -0.01235 0.0
          0.0195 -0.01235 0.0
          0.0182 -0.01235 0.0
          0.0169 -0.01235 0.0
          0.0156 -0.01235 0.0
          0.0143 -0.01235 0.0
          0.013 -0.01235 0.0
          0.0117 -0.01235 0.0
          0.0104 -0.01235 0.0
          0.0091 -0.01235 0.0
          0.0078 -0.01235 0.0
          0.0065 -0.01235 0.0
          0.0052 -0.01235 0.0
          0.0039 -0.01235 0.0
          0.0026 -0.01235 0.0
          0.0013 -0.01235 0.0
          0 -0.01235 0.0
          0.039 -0.01365 0.0
          0.0377 -0.01365 0.0
          0.0364 -0.01365 0.0
          0.0351 -0.01365 0.0
          0.0338 -0.01365 0.0
          0.0325 -0.01365 0.0
          0.0312 -0.01365 0.0
          0.0299 -0.01365 0.0
          0.0286 -0.01365 0.0
          0.0273 -0.01365 0.0
          0.026 -0.01365 0.0
          0.0247 -0.01365 0.0
          0.0234 -0.01365 0.0
          0.0221 -0.01365 0.0
          0.0208 -0.01365 0.0
          0.0195 -0.01365 0.0
          0.0182 -0.01365 0.0
          0.0169 -0.01365 0.0
          0.0156 -0.01365 0.0
          0.0143 -0.01365 0.0
          0.013 -0.01365 0.0
          0.0117 -0.01365 0.0
          0.0104 -0.01365 0.0
          0.0091 -0.01365 0.0
          0.0078 -0.01365 0.0
          0.0065 -0.01365 0.0
          0.0052 -0.01365 0.0
          0.0039 -0.01365 0.0
          0.0026 -0.01365 0.0
          0.0013 -0.01365 0.0
          0 -0.01365 0.0
          0.039 -0.01495 0.0
          0.0377 -0.01495 0.0
          0.0364 -0.01495 0.0
          0.0351 -0.01495 0.0
          0.0338 -0.01495 0.0
          0.0325 -0.01495 0.0
          0.0312 -0.01495 0.0
          0.0299 -0.01495 0.0
          0.0286 -0.01495 0.0
          0.0273 -0.01495 0.0
          0.026 -0.01495 0.0
          0.0247 -0.01495 0.0
          0.0234 -0.01495 0.0
          0.0221 -0.01495 0.0
          0.0208 -0.01495 0.0