<?xml version="1.0"?>
<VTKFile type="UnstructuredGrid" version="0.1" byte_order="LittleEndian">
  <UnstructuredGrid>
    <Piece NumberOfPoints="961" NumberOfCells="900">
      <PointData Scalars="Temperature">
        <DataArray type="Float32" Name="Temperature" format="ascii">
          21.033
          22.4509
          23.9196
          25.3855
          26.6166
          27.4257
          27.7331
          27.7076
          27.5956
          27.6018
          27.7406
          27.8788
          27.8784
          27.7397
          27.6017
          27.6036
          27.745
          27.8863
          27.8889
          27.7539
          27.6198
          27.6203
          27.7411
          27.7844
          27.5158
          26.7859
          25.6844
          24.4028
          23.1709
          22.0519
          21.0258
          22.4075
          79.453
          140.645
          202.066
          255.284
          288.466
          300.061
          296.397
          290.133
          290.282
          297.445
          304.609
          304.596
          297.408
          290.253
          290.334
          297.632
          304.922
          305.021
          297.973
          291.006
          291.129
          297.753
          302.006
          291.878
          261.796
          213.951
          160.092
          108.592
          63.6173
          22.0249
          23.6665
          132.018
          249.782
          390.69
          505.119
          577.679
          589.155
          567.328
          542.866
          542.674
          567.607
          592.623
          592.61
          567.53
          542.524
          542.723
          568.024
          593.29
          593.388
          568.562
          543.993
          544.793
          569.875
          592.454
          582.43
          515.585
          411.719
          286.497
          187.411
          101.931
          22.9472
          24.7111
          175.424
          340.619
          538.5
          895.337
          895.376
          895.386
          895.368
          732.022
          731.377
          892.36
          892.38
          892.38
          892.36
          731.021
          731.314
          893.428
          893.448
          893.448
          893.428
          733.113
          734.613
          899.477
          899.495
          899.487
          899.449
          566.411
          391.86
          253.263
          134.274
          23.7282
          25.4699
          206.584
          401.327
          632.238
          895.512
          895.527
          895.535
          895.535
          842.842
          841.833
          892.53
          892.534
          892.534
          892.53
          841.306
          841.662
          893.597
          893.601
          893.601
          893.597
          843.788
          845.813
          899.641
          899.642
          899.634
          899.621
          665.109
          464.143
          302.17
          158.981
          24.3306
          25.9469
          225.46
          434.653
          659.049
          895.924
          895.936
          895.944
          895.945
          877.904
          876.898
          892.953
          892.954
          892.954
          892.953
          876.273
          876.629
          894.018
          894.019
          894.019
          894.018
          878.945
          880.963
          900.042
          900.041
          900.035
          900.024
          696.264
          506.214
          334.043
          175.985
          24.7513
          26.2043
          235.324
          449.199
          670.109
          896.583
          896.595
          896.602
          896.604
          889.44
          888.442
          893.633
          893.633
          893.633
          893.633
          887.791
          888.145
          894.695
          894.695
          894.695
          894.695
          890.511
          892.518
          900.686
          900.685
          900.679
          900.669
          710.55
          527.048
          352.762
          186.596
          25.019
          26.3301
          239.965
          455.904
          675.255
          897.489
          897.5
          897.507
          897.509
          893.773
          892.785
          894.57
          894.57
          894.57
          894.569
          892.133
          892.486
          895.627
          895.627
          895.627
          895.627
          894.854
          896.846
          901.572
          901.57
          901.565
          901.555
          717.934
          537.999
          363.082
          192.768
          25.1772
          26.39
          242.219
          459.23
          678.064
          898.639
          898.65
          898.657
          898.659
          896.019
          895.044
          895.76
          895.76
          895.76
          895.76
          894.4
          894.751
          896.812
          896.812
          896.812
          896.812
          897.104
          899.075
          902.696
          902.694
          902.689
          902.679
          722.218
          544.065
          368.832
          196.257
          25.2674
          26.4223
          243.442
          461.145
          679.969
          900.031
          900.042
          900.049
          900.051
          897.779
          896.821
          897.202
          897.202
          897.202
          897.202
          896.191
          896.539
          898.246
          898.246
          898.246
          898.246
          898.866
          900.813
          904.056
          904.055
          904.049
          904.04
          725.063
          547.703
          372.183
          198.276
          25.3195
          26.443
          244.247
          462.511
          681.581
          901.661
          901.672
          901.679
          901.681
          899.554
          898.616
          898.891
          898.891
          898.891
          898.891
          898.002
          898.348
          899.927
          899.927
          899.927
          899.927
          900.643
          902.56
          905.649
          905.648
          905.642
          905.633
          727.266
          550.153
          374.313
          199.529
          25.3517
          26.4595
          244.902
          463.703
          683.165
          903.525
          903.537
          903.544
          903.546
          901.497
          900.582
          900.824
          900.824
          900.824
          900.824
          899.988
          900.33
          901.85
          901.85
          901.85
          901.85
          902.588
          904.471
          907.471
          907.469
          907.463
          907.454
          729.227
          552.055
          375.851
          200.402
          25.3738
          26.4749
          245.525
          464.885
          684.834
          905.62
          905.631
          905.638
          905.64
          903.653
          902.763
          902.995
          902.996
          902.995
          902.995
          902.192
          902.531
          904.011
          904.011
          904.011
          904.011
          904.746
          906.59
          909.516
          909.514
          909.509
          909.499
          731.152
          553.742
          377.128
          201.101
          25.3913
          26.4907
          246.168
          466.128
          686.635
          907.938
          907.95
          907.957
          907.959
          906.032
          905.171
          905.4
          905.4
          905.4
          905.4
          904.625
          904.96
          906.403
          906.404
          906.404
          906.404
          907.127
          908.929
          911.78
          911.778
          911.773
          911.764
          733.148
          555.392
          378.323
          201.738
          25.4072
          26.5075
          246.854
          467.463
          688.588
          910.476
          910.487
          910.494
          910.497
          908.633
          907.805
          908.033
          908.033
          908.033
          908.033
          907.286
          907.616
          909.022
          909.023
          909.023
          909.023
          909.731
          911.486
          914.257
          914.256
          914.25
          914.241
          735.276
          557.105
          379.538
          202.377
          25.4229
          26.5257
          247.595
          468.908
          690.704
          913.226
          913.238
          913.245
          913.247
          911.452
          910.658
          910.886
          910.886
          910.886
          910.886
          910.169
          910.494
          911.861
          911.861
          911.861
          911.861
          912.553
          914.255
          916.942
          916.94
          916.935
          916.925
          737.576
          558.953
          380.846
          203.064
          25.44
          26.5453
          248.404
          470.476
          692.989
          916.182
          916.194
          916.2
          916.203
          914.482
          913.725
          913.954
          913.954
          913.954
          913.954
          913.268
          913.588
          914.912
          914.913
          914.913
          914.913
          915.585
          917.232
          919.826
          919.824
          919.819
          919.81
          740.09
          561.008
          382.321
          203.847
          25.4591
          26.5685
          249.3
          472.198
          695.461
          919.336
          919.348
          919.355
          919.357
          917.715
          916.998
          917.227
          917.227
          917.227
          917.227
          916.576
          916.89
          918.169
          918.169
          918.169
          918.169
          918.82
          920.407
          922.904
          922.902
          922.896
          922.887
          742.882
          563.378
          384.074
          204.793
          25.4838
          26.5899
          250.334
          474.138
          698.162
          922.681
          922.693
          922.7
          922.702
          921.143
          920.469
          920.699
          920.699
          920.699
          920.699
          920.083
          920.392
          921.622
          921.622
          921.622
          921.623
          922.252
          923.775
          926.166
          926.164
          926.159
          926.149
          746.067
          566.255
          386.299
          206.027
          25.5106
          26.6389
          251.606
          476.446
          701.194
          926.209
          926.22
          926.227
          926.23
          924.759
          924.13
          924.361
          924.361
          924.361
          924.361
          923.783
          924.085
          925.264
          925.264
          925.264
          925.264
          925.87
          927.325
          929.605
          929.604
          929.598
          929.589
          749.862
          570
          389.363
          207.774
          25.572
          26.617
          253.396
          479.462
          704.8
          929.91
          929.921
          929.928
          929.931
          928.554
          927.971
          928.203
          928.203
          928.203
          928.203
          927.666
          927.96
          929.085
          929.086
          929.086
          929.086
          929.666
          931.05
          933.213
          933.211
          933.206
          933.197
          754.685
          575.302
          393.959
          210.504
          25.574
          26.9612
          256.154
          484.013
          709.525
          933.775
          933.787
          933.794
          933.796
          932.519
          931.986
          932.216
          932.216
          932.216
          932.216
          931.723
          932.01
          933.076
          933.077
          933.077
          933.077
          933.633
          934.941
          936.979
          936.978
          936.973
          936.964
          761.324
          583.457
          401.461
          214.953
          25.9621
          26.0171
          261.678
          491.776
          716.669
          937.796
          937.807
          937.814
          937.816
          936.649
          936.168
          936.39
          936.39
          936.39
          936.39
          935.949
          936.229
          937.227
          937.227
          937.228
          937.228
          937.764
          938.993
          940.894
          940.893
          940.89
          940.882
          771.224
          596.967
          414.33
          223.3
          25.0846
          30.6458
          271.058
          507.449
          728.933
          941.962
          941.973
          941.978
          941.979
          940.949
          940.521
          940.715
          940.715
          940.715
          940.715
          940.349
          940.619
          941.526
          941.527
          941.529
          941.53
          942.063
          943.209
          944.947
          944.947
          944.947
          944.941
          786.972
          620.229
          438.231
          237.058
          29.8384
          13.8681
          299.384
          538.253
          753.034
          946.265
          946.273
          946.275
          946.276
          945.452
          945.081
          945.179
          945.18
          945.18
          945.18
          944.956
          945.216
          945.962
          945.965
          945.971
          945.974
          946.565
          947.619
          949.123
          949.127
          949.136
          949.135
          812.305
          661.901
          481.3
          271.719
          13.1496
          85.2706
          334.953
          614.153
          798.177
          950.696
          950.698
          950.693
          950.69
          950.293
          949.984
          949.772
          949.773
          949.774
          949.774
          949.909
          950.154
          950.515
          950.526
          950.544
          950.554
          951.404
          952.349
          953.397
          953.417
          953.451
          953.466
          850.931
          732.533
          574.005
          315.623
          85.0208
          -190.651
          561.235
          758.688
          870.58
          955.251
          955.244
          955.214
          955.203
          955.923
          955.69
          954.482
          954.483
          954.486
          954.487
          955.673
          955.883
          955.161
          955.185
          955.251
          955.275
          957.043
          957.816
          957.728
          957.776
          957.909
          957.954
          903.81
          837.869
          739.364
          552.61
          -191.707
          960.577
          963.348
          964.246
          963.91
          960.899
          959.424
          959.363
          960.685
          963.331
          963.222
          960.267
          958.809
          958.816
          960.29
          963.279
          963.412
          960.76
          959.454
          959.583
          961.204
          964.508
          964.954
          962.814
          961.756
          962.015
          963.714
          967.227
          968.147
          968.07
          966.969
          964.132
          962.26
          964.068
          964.856
          964.572
          963.764
          962.998
          962.915
          963.488
          964.054
          963.952
          963.209
          962.502
          962.512
          963.242
          964.01
          964.14
          963.608
          963.091
          963.275
          964.207
          965.22
          965.647
          965.407
          965.142
          965.508
          966.606
          967.831
          968.65
          968.575
          967.629
          965.765
          964.727
          965.691
          966.173
          966.195
          965.896
          965.59
          965.506
          965.644
          965.783
          965.706
          965.425
          965.176
          965.187
          965.461
          965.77
          965.881
          965.792
          965.728
          965.928
          966.405
          966.941
          967.297
          967.451
          967.608
          968
          968.645
          969.335
          969.751
          969.684
          969.115
          968.117
          966.234
          966.38
          966.768
          966.847
          966.689
          966.491
          966.41
          966.453
          966.499
          966.429
          966.253
          966.106
          966.118
          966.29
          966.495
          966.602
          966.61
          966.647
          966.848
          967.223
          967.646
          967.984
          968.22
          968.469
          968.859
          969.397
          969.931
          970.243
          970.175
          969.744
          969.574
        </DataArray>
      </PointData>
      <CellData>
      </CellData>
      <Points>
        <DataArray type="Float32" NumberOfComponents="3" format="ascii">
          0.1 0.005 0.0
          0.0966667 0.005 0.0
          0.0933333 0.005 0.0
          0.09 0.005 0.0
          0.0866667 0.005 0.0
          0.0833333 0.005 0.0
          0.08 0.005 0.0
          0.0766667 0.005 0.0
          0.0733333 0.005 0.0
          0.07 0.005 0.0
          0.0666667 0.005 0.0
          0.0633333 0.005 0.0
          0.06 0.005 0.0
          0.0566667 0.005 0.0
          0.0533333 0.005 0.0
          0.05 0.005 0.0
          0.0466667 0.005 0.0
          0.0433333 0.005 0.0
          0.04 0.005 0.0
          0.0366667 0.005 0.0
          0.0333333 0.005 0.0
          0.03 0.005 0.0
          0.0266667 0.005 0.0
          0.0233333 0.005 0.0
          0.02 0.005 0.0
          0.0166667 0.005 0.0
          0.0133333 0.005 0.0
          0.01 0.005 0.0
          0.00666667 0.005 0.0
          0.00333333 0.005 0.0
          0 0.005 0.0
          0.1 0.00166667 0.0
          0.0966667 0.00166667 0.0
          0.0933333 0.00166667 0.0
          0.09 0.00166667 0.0
          0.0866667 0.00166667 0.0
          0.0833333 0.00166667 0.0
          0.08 0.00166667 0.0
          0.0766667 0.00166667 0.0
          0.0733333 0.00166667 0.0
          0.07 0.00166667 0.0
          0.0666667 0.00166667 0.0
          0.0633333 0.00166667 0.0
          0.06 0.00166667 0.0
          0.0566667 0.00166667 0.0
          0.0533333 0.00166667 0.0
          0.05 0.00166667 0.0
          0.0466667 0.00166667 0.0
          0.0433333 0.00166667 0.0
          0.04 0.00166667 0.0
          0.0366667 0.00166667 0.0
          0.0333333 0.00166667 0.0
          0.03 0.00166667 0.0
          0.0266667 0.00166667 0.0
          0.0233333 0.00166667 0.0
          0.02 0.00166667 0.0
          0.0166667 0.00166667 0.0
          0.0133333 0.00166667 0.0
          0.01 0.00166667 0.0
          0.00666667 0.00166667 0.0
          0.00333333 0.00166667 0.0
          0 0.00166667 0.0
          0.1 -0.00166667 0.0
          0.0966667 -0.00166667 0.0
          0.0933333 -0.00166667 0.0
          0.09 -0.00166667 0.0
          0.0866667 -0.00166667 0.0
          0.0833333 -0.00166667 0.0
          0.08 -0.00166667 0.0
          0.0766667 -0.00166667 0.0
          0.0733333 -0.00166667 0.0
          0.07 -0.00166667 0.0
          0.0666667 -0.00166667 0.0
          0.0633333 -0.00166667 0.0
          0.06 -0.00166667 0.0
          0.0566667 -0.00166667 0.0
          0.0533333 -0.00166667 0.0
          0.05 -0.00166667 0.0
          0.0466667 -0.00166667 0.0
          0.0433333 -0.00166667 0.0
          0.04 -0.00166667 0.0
          0.0366667 -0.00166667 0.0
          0.0333333 -0.00166667 0.0
          0.03 -0.00166667 0.0
          0.0266667 -0.00166667 0.0
          0.0233333 -0.00166667 0.0
          0.02 -0.00166667 0.0
          0.0166667 -0.00166667 0.0
          0.0133333 -0.00166667 0.0
          0.01 -0.00166667 0.0
          0.00666667 -0.00166667 0.0
          0.00333333 -0.00166667 0.0
          0 -0.00166667 0.0
          0.1 -0.005 0.0
          0.0966667 -0.005 0.0
          0.0933333 -0.005 0.0
          0.09 -0.005 0.0
          0.0866667 -0.005 0.0
          0.0833333 -0.005 0.0
          0.08 -0.005 0.0
          0.0766667 -0.005 0.0
          0.0733333 -0.005 0.0
          0.07 -0.005 0.0
          0.0666667 -0.005 0.0
          0.0633333 -0.005 0.0
          0.06 -0.005 0.0
          0.0566667 -0.005 0.0
          0.0533333 -0.005 0.0
          0.05 -0.005 0.0
          0.0466667 -0.005 0.0
          0.0433333 -0.005 0.0
          0.04 -0.005 0.0
          0.0366667 -0.005 0.0
          0.0333333 -0.005 0.0
          0.03 -0.005 0.0
          0.0266667 -0.005 0.0
          0.0233333 -0.005 0.0
          0.02 -0.005 0.0
          0.0166667 -0.005 0.0
          0.0133333 -0.005 0.0
          0.01 -0.005 0.0
          0.00666667 -0.005 0.0
          0.00333333 -0.005 0.0
          0 -0.005 0.0
          0.1 -0.00833333 0.0
          0.0966667 -0.00833333 0.0
          0.0933333 -0.00833333 0.0
          0.09 -0.00833333 0.0
          0.0866667 -0.00833333 0.0
          0.0833333 -0.00833333 0.0
          0.08 -0.00833333 0.0
          0.0766667 -0.00833333 0.0
          0.0733333 -0.00833333 0.0
          0.07 -0.00833333 0.0
          0.0666667 -0.00833333 0.0
          0.0633333 -0.00833333 0.0
          0.06 -0.00833333 0.0
          0.0566667 -0.00833333 0.0
          0.0533333 -0.00833333 0.0
          0.05 -0.00833333 0.0
          0.0466667 -0.00833333 0.0
          0.0433333 -0.00833333 0.0
          0.04 -0.00833333 0.0
          0.0366667 -0.00833333 0.0
          0.0333333 -0.00833333 0.0
          0.03 -0.00833333 0.0
          0.0266667 -0.00833333 0.0
          0.0233333 -0.00833333 0.0
          0.02 -0.00833333 0.0
          0.0166667 -0.00833333 0.0
          0.0133333 -0.00833333 0.0
          0.01 -0.00833333 0.0
          0.00666667 -0.00833333 0.0
          0.00333333 -0.00833333 0.0
          0 -0.00833333 0.0
          0.1 -0.0116667 0.0
          0.0966667 -0.0116667 0.0
          0.0933333 -0.0116667 0.0
          0.09 -0.0116667 0.0
          0.0866667 -0.0116667 0.0
          0.0833333 -0.0116667 0.0
          0.08 -0.0116667 0.0
          0.0766667 -0.0116667 0.0
          0.0733333 -0.0116667 0.0
          0.07 -0.0116667 0.0
          0.0666667 -0.0116667 0.0
          0.0633333 -0.0116667 0.0
          0.06 -0.0116667 0.0
          0.0566667 -0.0116667 0.0
          0.0533333 -0.0116667 0.0
          0.05 -0.0116667 0.0
          0.0466667 -0.0116667 0.0
          0.0433333 -0.0116667 0.0
          0.04 -0.0116667 0.0
          0.0366667 -0.0116667 0.0
          0.0333333 -0.0116667 0.0
          0.03 -0.0116667 0.0
          0.0266667 -0.0116667 0.0
          0.0233333 -0.0116667 0.0
          0.02 -0.0116667 0.0
          0.0166667 -0.0116667 0.0
          0.0133333 -0.0116667 0.0
          0.01 -0.0116667 0.0
          0.00666667 -0.0116667 0.0
          0.00333333 -0.0116667 0.0
          0 -0.0116667 0.0
          0.1 -0.015 0.0
          0.0966667 -0.015 0.0
          0.0933333 -0.015 0.0
          0.09 -0.015 0.0
          0.0866667 -0.015 0.0
          0.0833333 -0.015 0.0
          0.08 -0.015 0.0
          0.0766667 -0.015 0.0
          0.0733333 -0.015 0.0
          0.07 -0.015 0.0
          0.0666667 -0.015 0.0
          0.0633333 -0.015 0.0
          0.06 -0.015 0.0
          0.0566667 -0.015 0.0
          0.0533333 -0.015 0.0
          0.05 -0.015 0.0
          0.0466667 -0.015 0.0
          0.0433333 -0.015 0.0
          0.04 -0.015 0.0
          0.0366667 -0.015 0.0
          0.0333333 -0.015 0.0
          0.03 -0.015 0.0
          0.0266667 -0.015 0.0
          0.0233333 -0.015 0.0
          0.02 -0.015 0.0
          0.0166667 -0.015 0.0
          0.0133333 -0.015 0.0
          0.01 -0.015 0.0
          0.00666667 -0.015 0.0
          0.00333333 -0.015 0.0
          0 -0.015 0.0
          0.1 -0.0183333 0.0
          0.0966667 -0.0183333 0.0
          0.0933333 -0.0183333 0.0
          0.09 -0.0183333 0.0
          0.0866667 -0.0183333 0.0
          0.0833333 -0.0183333 0.0
          0.08 -0.0183333 0.0
          0.0766667 -0.0183333 0.0
          0.0733333 -0.0183333 0.0
          0.07 -0.0183333 0.0
          0.0666667 -0.0183333 0.0
          0.0633333 -0.0183333 0.0
          0.06 -0.0183333 0.0
          0.0566667 -0.0183333 0.0
          0.0533333 -0.0183333 0.0
          0.05 -0.0183333 0.0
          0.0466667 -0.0183333 0.0
          0.0433333 -0.0183333 0.0
          0.04 -0.0183333 0.0
          0.0366667 -0.0183333 0.0
          0.0333333 -0.0183333 0.0
          0.03 -0.0183333 0.0
          0.0266667 -0.0183333 0.0
          0.0233333 -0.0183333 0.0
          0.02 -0.0183333 0.0
          0.0166667 -0.0183333 0.0
          0.0133333 -0.0183333 0.0
          0.01 -0.0183333 0.0
          0.00666667 -0.0183333 0.0
          0.00333333 -0.0183333 0.0
          0 -0.0183333 0.0
          0.1 -0.0216667 0.0
          0.0966667 -0.0216667 0.0
          0.0933333 -0.0216667 0.0
          0.09 -0.0216667 0.0
          0.0866667 -0.0216667 0.0
          0.0833333 -0.0216667 0.0
          0.08 -0.0216667 0.0
          0.0766667 -0.0216667 0.0
          0.0733333 -0.0216667 0.0
          0.07 -0.0216667 0.0
          0.0666667 -0.0216667 0.0
          0.0633333 -0.0216667 0.0
          0.06 -0.0216667 0.0
          0.0566667 -0.0216667 0.0
          0.0533333 -0.0216667 0.0
          0.05 -0.0216667 0.0
          0.0466667 -0.0216667 0.0
          0.0433333 -0.0216667 0.0
          0.04 -0.0216667 0.0
          0.0366667 -0.0216667 0.0
          0.0333333 -0.0216667 0.0
          0.03 -0.0216667 0.0
          0.0266667 -0.0216667 0.0
          0.0233333 -0.0216667 0.0
          0.02 -0.0216667 0.0
          0.0166667 -0.0216667 0.0
          0.0133333 -0.0216667 0.0
          0.01 -0.0216667 0.0
          0.00666667 -0.0216667 0.0
          0.00333333 -0.0216667 0.0
          0 -0.0216667 0.0
          0.1 -0.025 0.0
          0.0966667 -0.025 0.0
          0.0933333 -0.025 0.0
          0.09 -0.025 0.0
          0.0866667 -0.025 0.0
          0.0833333 -0.025 0.0
          0.08 -0.025 0.0
          0.0766667 -0.025 0.0
          0.0733333 -0.025 0.0
          0.07 -0.025 0.0
          0.0666667 -0.025 0.0
          0.0633333 -0.025 0.0
          0.06 -0.025 0.0
          0.0566667 -0.025 0.0
          0.0533333 -0.025 0.0
          0.05 -0.025 0.0
          0.0466667 -0.025 0.0
          0.0433333 -0.025 0.0
          0.04 -0.025 0.0
          0.0366667 -0.025 0.0
          0.0333333 -0.025 0.0
          0.03 -0.025 0.0
          0.0266667 -0.025 0.0
          0.0233333 -0.025 0.0
          0.02 -0.025 0.0
          0.0166667 -0.025 0.0
          0.0133333 -0.025 0.0
          0.01 -0.025 0.0
          0.00666667 -0.025 0.0
          0.00333333 -0.025 0.0
          0 -0.025 0.0
          0.1 -0.0283333 0.0
          0.0966667 -0.0283333 0.0
          0.0933333 -0.0283333 0.0
          0.09 -0.0283333 0.0
          0.0866667 -0.0283333 0.0
          0.0833333 -0.0283333 0.0
          0.08 -0.0283333 0.0
          0.0766667 -0.0283333 0.0
          0.0733333 -0.0283333 0.0
          0.07 -0.0283333 0.0
          0.0666667 -0.0283333 0.0
          0.0633333 -0.0283333 0.0
          0.06 -0.0283333 0.0
          0.0566667 -0.0283333 0.0
          0.0533333 -0.0283333 0.0
          0.05 -0.0283333 0.0
          0.0466667 -0.0283333 0.0
          0.0433333 -0.0283333 0.0
          0.04 -0.0283333 0.0
          0.0366667 -0.0283333 0.0
          0.0333333 -0.0283333 0.0
          0.03 -0.0283333 0.0
          0.0266667 -0.0283333 0.0
          0.0233333 -0.0283333 0.0
          0.02 -0.0283333 0.0
          0.0166667 -0.0283333 0.0
          0.0133333 -0.0283333 0.0
          0.01 -0.0283333 0.0
          0.00666667 -0.0283333 0.0
          0.00333333 -0.0283333 0.0
          0 -0.0283333 0.0
          0.1 -0.0316667 0.0
          0.0966667 -0.0316667 0.0
          0.0933333 -0.0316667 0.0
          0.09 -0.0316667 0.0
          0.0866667 -0.0316667 0.0
          0.0833333 -0.0316667 0.0
          0.08 -0.0316667 0.0
          0.0766667 -0.0316667 0.0
          0.0733333 -0.0316667 0.0
          0.07 -0.0316667 0.0
          0.0666667 -0.0316667 0.0
          0.0633333 -0.0316667 0.0
          0.06 -0.0316667 0.0
          0.0566667 -0.0316667 0.0
          0.0533333 -0.0316667 0.0
          0.05 -0.0316667 0.0
          0.0466667 -0.0316667 0.0
          0.0433333 -0.0316667 0.0
          0.04 -0.0316667 0.0
          0.0366667 -0.0316667 0.0
          0.0333333 -0.0316667 0.0
          0.03 -0.0316667 0.0
          0.0266667 -0.0316667 0.0
          0.0233333 -0.0316667 0.0
          0.02 -0.0316667 0.0
          0.0166667 -0.0316667 0.0
          0.0133333 -0.0316667 0.0
          0.01 -0.0316667 0.0
          0.00666667 -0.0316667 0.0
          0.00333333 -0.0316667 0.0
          0 -0.0316667 0.0
          0.1 -0.035 0.0
          0.0966667 -0.035 0.0
          0.0933333 -0.035 0.0
          0.09 -0.035 0.0
          0.0866667 -0.035 0.0
          0.0833333 -0.035 0.0
          0.08 -0.035 0.0
          0.0766667 -0.035 0.0
          0.0733333 -0.035 0.0
          0.07 -0.035 0.0
          0.0666667 -0.035 0.0
          0.0633333 -0.035 0.0
          0.06 -0.035 0.0
          0.0566667 -0.035 0.0
          0.0533333 -0.035 0.0
          0.05 -0.035 0.0
          0.0466667 -0.035 0.0