<?xml version="1.0"?>
<VTKFile type="UnstructuredGrid" version="0.1" byte_order="LittleEndian">
  <UnstructuredGrid>
    <Piece NumberOfPoints="961" NumberOfCells="900">
      <PointData Scalars="Temperature">
        <DataArray type="Float32" Name="Temperature" format="ascii">
          21.0344
          22.513
          24.044
          25.5714
          26.8539
          27.697
          28.0185
          27.9947
          27.8821
          27.8928
          28.0407
          28.1868
          28.1874
          28.0431
          27.8992
          27.9007
          28.0472
          28.1936
          28.1949
          28.0513
          27.9073
          27.9023
          28.023
          28.0645
          27.7837
          27.024
          25.8783
          24.5448
          23.2623
          22.0965
          21.0269
          22.4678
          81.9537
          145.735
          209.724
          265.149
          299.715
          311.841
          308.141
          301.791
          302.127
          309.731
          317.274
          317.296
          309.817
          302.357
          302.421
          309.994
          317.554
          317.601
          310.153
          302.709
          302.601
          309.274
          313.56
          302.967
          271.673
          221.917
          165.886
          112.276
          65.4218
          22.0684
          23.7806
          136.756
          259.485
          406.207
          525.321
          600.838
          612.841
          590.364
          565.274
          565.525
          591.768
          617.957
          617.978
          591.876
          565.825
          565.982
          592.267
          618.516
          618.563
          592.528
          566.58
          566.825
          592.444
          615.632
          605.148
          535.678
          427.72
          297.524
          194.397
          105.352
          23.0297
          24.8693
          181.994
          354.119
          560.111
          931.154
          931.195
          931.205
          931.187
          762.361
          762.356
          930.487
          930.508
          930.508
          930.487
          762.581
          762.812
          931.331
          931.352
          931.352
          931.331
          763.739
          764.431
          934.451
          934.47
          934.461
          934.423
          588.63
          407.203
          262.983
          139.048
          23.8435
          25.6598
          214.447
          417.324
          657.635
          931.286
          931.301
          931.31
          931.31
          877.7
          877.46
          930.611
          930.614
          930.614
          930.611
          877.578
          877.86
          931.454
          931.458
          931.458
          931.454
          879.014
          880.061
          934.571
          934.572
          934.565
          934.551
          691.215
          482.402
          313.891
          164.775
          24.4708
          26.1559
          234.077
          451.962
          685.445
          931.561
          931.574
          931.582
          931.583
          914.086
          913.849
          930.892
          930.893
          930.893
          930.892
          913.906
          914.187
          931.733
          931.734
          931.734
          931.733
          915.473
          916.515
          934.838
          934.837
          934.831
          934.819
          723.519
          526.105
          347.025
          182.458
          24.9084
          26.4225
          244.291
          466.991
          696.776
          931.993
          932.005
          932.013
          932.015
          925.853
          925.62
          931.335
          931.335
          931.335
          931.335
          925.659
          925.94
          932.174
          932.174
          932.174
          932.174
          927.261
          928.296
          935.257
          935.256
          935.249
          935.239
          738.193
          547.652
          366.424
          193.462
          25.1861
          26.5514
          249.036
          473.797
          701.87
          932.581
          932.593
          932.6
          932.602
          930.006
          929.779
          931.94
          931.94
          931.94
          931.94
          929.817
          930.096
          932.775
          932.775
          932.775
          932.775
          931.419
          932.444
          935.828
          935.826
          935.82
          935.81
          745.601
          558.849
          377.034
          199.822
          25.3492
          26.611
          251.267
          477.031
          704.451
          933.323
          933.335
          933.342
          933.344
          931.878
          931.659
          932.705
          932.705
          932.705
          932.705
          931.702
          931.979
          933.536
          933.536
          933.536
          933.536
          933.291
          934.303
          936.548
          936.546
          936.541
          936.531
          749.701
          564.894
          382.84
          203.363
          25.4409
          26.6411
          252.397
          478.742
          706.014
          934.218
          934.229
          934.237
          934.239
          933.143
          932.934
          933.629
          933.629
          933.629
          933.629
          932.984
          933.259
          934.454
          934.454
          934.454
          934.454
          934.553
          935.549
          937.417
          937.415
          937.409
          937.399
          752.22
          568.347
          386.105
          205.352
          25.4924
          26.6585
          253.065
          479.83
          707.197
          935.263
          935.275
          935.282
          935.284
          934.322
          934.125
          934.709
          934.71
          934.71
          934.709
          934.184
          934.457
          935.527
          935.527
          935.527
          935.527
          935.729
          936.705
          938.431
          938.429
          938.423
          938.414
          753.99
          570.501
          388.056
          206.522
          25.5225
          26.6709
          253.551
          480.686
          708.276
          936.457
          936.469
          936.476
          936.478
          935.578
          935.394
          935.943
          935.943
          935.943
          935.943
          935.464
          935.734
          936.753
          936.753
          936.753
          936.753
          936.981
          937.934
          939.589
          939.587
          939.581
          939.572
          755.43
          572.024
          389.349
          207.274
          25.5417
          26.6815
          253.979
          481.483
          709.372
          937.796
          937.808
          937.815
          937.817
          936.959
          936.79
          937.328
          937.328
          937.328
          937.328
          936.873
          937.14
          938.128
          938.128
          938.128
          938.128
          938.358
          939.285
          940.887
          940.885
          940.88
          940.87
          756.757
          573.264
          390.329
          207.824
          25.5556
          26.692
          254.404
          482.296
          710.536
          939.277
          939.289
          939.296
          939.299
          938.479
          938.327
          938.86
          938.86
          938.86
          938.86
          938.423
          938.687
          939.65
          939.65
          939.65
          939.65
          939.872
          940.77
          942.323
          942.321
          942.316
          942.306
          758.082
          574.407
          391.185
          208.289
          25.5673
          26.7029
          254.849
          483.159
          711.79
          940.897
          940.909
          940.916
          940.918
          940.138
          940.004
          940.535
          940.535
          940.535
          940.535
          940.115
          940.376
          941.314
          941.314
          941.314
          941.314
          941.525
          942.392
          943.893
          943.891
          943.885
          943.876
          759.472
          575.56
          392.023
          208.737
          25.5784
          26.7148
          255.329
          484.09
          713.146
          942.652
          942.663
          942.671
          942.673
          941.934
          941.821
          942.35
          942.35
          942.35
          942.35
          941.948
          942.204
          943.116
          943.116
          943.116
          943.116
          943.315
          944.147
          945.593
          945.591
          945.585
          945.576
          760.97
          576.798
          392.919
          209.214
          25.5903
          26.7275
          255.856
          485.106
          714.615
          944.536
          944.548
          944.556
          944.558
          943.863
          943.772
          944.3
          944.3
          944.3
          944.3
          943.917
          944.169
          945.053
          945.053
          945.053
          945.053
          945.237
          946.033
          947.418
          947.416
          947.411
          947.401
          762.621
          578.196
          393.951
          209.771
          25.6039
          26.7433
          256.452
          486.239
          716.215
          946.547
          946.559
          946.566
          946.569
          945.921
          945.853
          946.379
          946.379
          946.379
          946.379
          946.017
          946.264
          947.119
          947.119
          947.119
          947.119
          947.288
          948.043
          949.365
          949.364
          949.358
          949.348
          764.492
          579.865
          395.23
          210.476
          25.6227
          26.7569
          257.168
          487.554
          717.992
          948.679
          948.691
          948.698
          948.7
          948.104
          948.06
          948.584
          948.584
          948.584
          948.584
          948.244
          948.486
          949.308
          949.308
          949.308
          949.308
          949.461
          950.175
          951.429
          951.427
          951.421
          951.412
          766.7
          582
          396.954
          211.457
          25.6433
          26.7979
          258.106
          489.205
          720.051
          950.927
          950.939
          950.946
          950.948
          950.404
          950.386
          950.909
          950.909
          950.909
          950.909
          950.591
          950.827
          951.617
          951.617
          951.617
          951.617
          951.753
          952.421
          953.604
          953.602
          953.596
          953.587
          769.469
          584.966
          399.495
          212.937
          25.6983
          26.7669
          259.549
          491.536
          722.638
          953.285
          953.297
          953.304
          953.306
          952.818
          952.827
          953.347
          953.347
          953.347
          953.347
          953.054
          953.284
          954.038
          954.038
          954.038
          954.038
          954.156
          954.778
          955.885
          955.883
          955.878
          955.868
          773.218
          589.458
          403.547
          215.393
          25.6931
          27.1051
          261.951
          495.381
          726.305
          955.747
          955.759
          955.766
          955.769
          955.341
          955.378
          955.893
          955.893
          955.894
          955.894
          955.627
          955.851
          956.566
          956.566
          956.566
          956.566
          956.668
          957.24
          958.266
          958.264
          958.259
          958.25
          778.744
          596.78
          410.497
          219.563
          26.0767
          26.142
          267.124
          502.432
          732.365
          958.308
          958.32
          958.328
          958.33
          957.969
          958.035
          958.541
          958.541
          958.541
          958.541
          958.307
          958.525
          959.195
          959.195
          959.195
          959.195
          959.283
          959.804
          960.742
          960.74
          960.735
          960.726
          787.5
          609.449
          422.817
          227.642
          25.1837
          30.8047
          276.163
          517.421
          743.538
          960.961
          960.973
          960.981
          960.984
          960.706
          960.801
          961.283
          961.284
          961.284
          961.285
          961.097
          961.308
          961.917
          961.918
          961.919
          961.919
          962.005
          962.472
          963.305
          963.304
          963.3
          963.292
          802.088
          631.884
          446.207
          241.146
          29.9676
          13.8536
          304.287
          547.617
          766.589
          963.698
          963.711
          963.722
          963.726
          963.578
          963.701
          964.112
          964.114
          964.116
          964.117
          964.021
          964.224
          964.726
          964.727
          964.73
          964.731
          964.858
          965.268
          965.949
          965.948
          965.946
          965.94
          826.253
          672.785
          488.843
          275.682
          13.131
          85.9303
          339.651
          623.22
          810.766
          966.506
          966.523
          966.544
          966.555
          966.677
          966.824
          967.019
          967.023
          967.031
          967.035
          967.171
          967.361
          967.611
          967.615
          967.623
          967.627
          967.929
          968.278
          968.665
          968.666
          968.668
          968.665
          863.684
          742.728
          581.403
          319.472
          85.5834
          -192.665
          567.444
          767.883
          882.193
          969.362
          969.389
          969.454
          969.478
          970.312
          970.464
          969.989
          969.999
          970.026
          970.036
          970.849
          971.012
          970.56
          970.57
          970.596
          970.606
          971.515
          971.783
          971.442
          971.447
          971.461
          971.464
          915.193
          847.392
          747.029
          557.84
          -193.442
          969.629
          972.54
          973.807
          974.13
          972.734
          972.022
          972.146
          973.158
          975.143
          975.271
          973.582
          972.734
          972.787
          973.766
          975.722
          975.826
          974.13
          973.283
          973.335
          974.31
          976.268
          976.401
          974.811
          974.003
          974.032
          974.916
          976.7
          976.844
          976.262
          974.868
          971.915
          971.206
          973.139
          974.267
          974.591
          974.477
          974.298
          974.477
          975.058
          975.624
          975.752
          975.426
          975.082
          975.159
          975.675
          976.199
          976.3
          975.958
          975.608
          975.682
          976.2
          976.734
          976.86
          976.546
          976.203
          976.242
          976.676
          977.112
          977.206
          976.658
          975.429
          973.46
          973.415
          974.484
          975.253
          975.703
          975.885
          975.996
          976.196
          976.501
          976.782
          976.9
          976.859
          976.805
          976.889
          977.116
          977.347
          977.433
          977.373
          977.309
          977.389
          977.619
          977.857
          977.955
          977.9
          977.824
          977.86
          978.008
          978.122
          978
          977.514
          976.687
          975.596
          974.816
          975.053
          975.7
          976.155
          976.416
          976.594
          976.797
          977.041
          977.259
          977.376
          977.398
          977.408
          977.492
          977.656
          977.82
          977.903
          977.904
          977.903
          977.983
          978.149
          978.319
          978.409
          978.41
          978.391
          978.425
          978.505
          978.528
          978.353
          977.896
          977.218
          976.965
        </DataArray>
      </PointData>
      <CellData>
      </CellData>
      <Points>
        <DataArray type="Float32" NumberOfComponents="3" format="ascii">
          0.1 0.005 0.0
          0.0966667 0.005 0.0
          0.0933333 0.005 0.0
          0.09 0.005 0.0
          0.0866667 0.005 0.0
          0.0833333 0.005 0.0
          0.08 0.005 0.0
          0.0766667 0.005 0.0
          0.0733333 0.005 0.0
          0.07 0.005 0.0
          0.0666667 0.005 0.0
          0.0633333 0.005 0.0
          0.06 0.005 0.0
          0.0566667 0.005 0.0
          0.0533333 0.005 0.0
          0.05 0.005 0.0
          0.0466667 0.005 0.0
          0.0433333 0.005 0.0
          0.04 0.005 0.0
          0.0366667 0.005 0.0
          0.0333333 0.005 0.0
          0.03 0.005 0.0
          0.0266667 0.005 0.0
          0.0233333 0.005 0.0
          0.02 0.005 0.0
          0.0166667 0.005 0.0
          0.0133333 0.005 0.0
          0.01 0.005 0.0
          0.00666667 0.005 0.0
          0.00333333 0.005 0.0
          0 0.005 0.0
          0.1 0.00166667 0.0
          0.0966667 0.00166667 0.0
          0.0933333 0.00166667 0.0
          0.09 0.00166667 0.0
          0.0866667 0.00166667 0.0
          0.0833333 0.00166667 0.0
          0.08 0.00166667 0.0
          0.0766667 0.00166667 0.0
          0.0733333 0.00166667 0.0
          0.07 0.00166667 0.0
          0.0666667 0.00166667 0.0
          0.0633333 0.00166667 0.0
          0.06 0.00166667 0.0
          0.0566667 0.00166667 0.0
          0.0533333 0.00166667 0.0
          0.05 0.00166667 0.0
          0.0466667 0.00166667 0.0
          0.0433333 0.00166667 0.0
          0.04 0.00166667 0.0
          0.0366667 0.00166667 0.0
          0.0333333 0.00166667 0.0
          0.03 0.00166667 0.0
          0.0266667 0.00166667 0.0
          0.0233333 0.00166667 0.0
          0.02 0.00166667 0.0
          0.0166667 0.00166667 0.0
          0.0133333 0.00166667 0.0
          0.01 0.00166667 0.0
          0.00666667 0.00166667 0.0
          0.00333333 0.00166667 0.0
          0 0.00166667 0.0
          0.1 -0.00166667 0.0
          0.0966667 -0.00166667 0.0
          0.0933333 -0.00166667 0.0
          0.09 -0.00166667 0.0
          0.0866667 -0.00166667 0.0
          0.0833333 -0.00166667 0.0
          0.08 -0.00166667 0.0
          0.0766667 -0.00166667 0.0
          0.0733333 -0.00166667 0.0
          0.07 -0.00166667 0.0
          0.0666667 -0.00166667 0.0
          0.0633333 -0.00166667 0.0
          0.06 -0.00166667 0.0
          0.0566667 -0.00166667 0.0
          0.0533333 -0.00166667 0.0
          0.05 -0.00166667 0.0
          0.0466667 -0.00166667 0.0
          0.0433333 -0.00166667 0.0
          0.04 -0.00166667 0.0
          0.0366667 -0.00166667 0.0
          0.0333333 -0.00166667 0.0
          0.03 -0.00166667 0.0
          0.0266667 -0.00166667 0.0
          0.0233333 -0.00166667 0.0
          0.02 -0.00166667 0.0
          0.0166667 -0.00166667 0.0
          0.0133333 -0.00166667 0.0
          0.01 -0.00166667 0.0
          0.00666667 -0.00166667 0.0
          0.00333333 -0.00166667 0.0
          0 -0.00166667 0.0
          0.1 -0.005 0.0
          0.0966667 -0.005 0.0
          0.0933333 -0.005 0.0
          0.09 -0.005 0.0
          0.0866667 -0.005 0.0
          0.0833333 -0.005 0.0
          0.08 -0.005 0.0
          0.0766667 -0.005 0.0
          0.0733333 -0.005 0.0
          0.07 -0.005 0.0
          0.0666667 -0.005 0.0
          0.0633333 -0.005 0.0
          0.06 -0.005 0.0
          0.0566667 -0.005 0.0
          0.0533333 -0.005 0.0
          0.05 -0.005 0.0
          0.0466667 -0.005 0.0
          0.0433333 -0.005 0.0
          0.04 -0.005 0.0
          0.0366667 -0.005 0.0
          0.0333333 -0.005 0.0
          0.03 -0.005 0.0
          0.0266667 -0.005 0.0
          0.0233333 -0.005 0.0
          0.02 -0.005 0.0
          0.0166667 -0.005 0.0
          0.0133333 -0.005 0.0
          0.01 -0.005 0.0
          0.00666667 -0.005 0.0
          0.00333333 -0.005 0.0
          0 -0.005 0.0
          0.1 -0.00833333 0.0
          0.0966667 -0.00833333 0.0
          0.0933333 -0.00833333 0.0
          0.09 -0.00833333 0.0
          0.0866667 -0.00833333 0.0
          0.0833333 -0.00833333 0.0
          0.08 -0.00833333 0.0
          0.0766667 -0.00833333 0.0
          0.0733333 -0.00833333 0.0
          0.07 -0.00833333 0.0
          0.0666667 -0.00833333 0.0
          0.0633333 -0.00833333 0.0
          0.06 -0.00833333 0.0
          0.0566667 -0.00833333 0.0
          0.0533333 -0.00833333 0.0
          0.05 -0.00833333 0.0
          0.0466667 -0.00833333 0.0
          0.0433333 -0.00833333 0.0
          0.04 -0.00833333 0.0
          0.0366667 -0.00833333 0.0
          0.0333333 -0.00833333 0.0
          0.03 -0.00833333 0.0
          0.0266667 -0.00833333 0.0
          0.0233333 -0.00833333 0.0
          0.02 -0.00833333 0.0
          0.0166667 -0.00833333 0.0
          0.0133333 -0.00833333 0.0
          0.01 -0.00833333 0.0
          0.00666667 -0.00833333 0.0
          0.00333333 -0.00833333 0.0
          0 -0.00833333 0.0
          0.1 -0.0116667 0.0
          0.0966667 -0.0116667 0.0
          0.0933333 -0.0116667 0.0
          0.09 -0.0116667 0.0
          0.0866667 -0.0116667 0.0
          0.0833333 -0.0116667 0.0
          0.08 -0.0116667 0.0
          0.0766667 -0.0116667 0.0
          0.0733333 -0.0116667 0.0
          0.07 -0.0116667 0.0
          0.0666667 -0.0116667 0.0
          0.0633333 -0.0116667 0.0
          0.06 -0.0116667 0.0
          0.0566667 -0.0116667 0.0
          0.0533333 -0.0116667 0.0
          0.05 -0.0116667 0.0
          0.0466667 -0.0116667 0.0
          0.0433333 -0.0116667 0.0
          0.04 -0.0116667 0.0
          0.0366667 -0.0116667 0.0
          0.0333333 -0.0116667 0.0
          0.03 -0.0116667 0.0
          0.0266667 -0.0116667 0.0
          0.0233333 -0.0116667 0.0
          0.02 -0.0116667 0.0
          0.0166667 -0.0116667 0.0
          0.0133333 -0.0116667 0.0
          0.01 -0.0116667 0.0
          0.00666667 -0.0116667 0.0
          0.00333333 -0.0116667 0.0
          0 -0.0116667 0.0
          0.1 -0.015 0.0
          0.0966667 -0.015 0.0
          0.0933333 -0.015 0.0
          0.09 -0.015 0.0
          0.0866667 -0.015 0.0
          0.0833333 -0.015 0.0
          0.08 -0.015 0.0
          0.0766667 -0.015 0.0
          0.0733333 -0.015 0.0
          0.07 -0.015 0.0
          0.0666667 -0.015 0.0
          0.0633333 -0.015 0.0
          0.06 -0.015 0.0
          0.0566667 -0.015 0.0
          0.0533333 -0.015 0.0
          0.05 -0.015 0.0
          0.0466667 -0.015 0.0
          0.0433333 -0.015 0.0
          0.04 -0.015 0.0
          0.0366667 -0.015 0.0
          0.0333333 -0.015 0.0
          0.03 -0.015 0.0
          0.0266667 -0.015 0.0
          0.0233333 -0.015 0.0
          0.02 -0.015 0.0
          0.0166667 -0.015 0.0
          0.0133333 -0.015 0.0
          0.01 -0.015 0.0
          0.00666667 -0.015 0.0
          0.00333333 -0.015 0.0
          0 -0.015 0.0
          0.1 -0.0183333 0.0
          0.0966667 -0.0183333 0.0
          0.0933333 -0.0183333 0.0
          0.09 -0.0183333 0.0
          0.0866667 -0.0183333 0.0
          0.0833333 -0.0183333 0.0
          0.08 -0.0183333 0.0
          0.0766667 -0.0183333 0.0
          0.0733333 -0.0183333 0.0
          0.07 -0.0183333 0.0
          0.0666667 -0.0183333 0.0
          0.0633333 -0.0183333 0.0
          0.06 -0.0183333 0.0
          0.0566667 -0.0183333 0.0
          0.0533333 -0.0183333 0.0
          0.05 -0.0183333 0.0
          0.0466667 -0.0183333 0.0
          0.0433333 -0.0183333 0.0
          0.04 -0.0183333 0.0
          0.0366667 -0.0183333 0.0
          0.0333333 -0.0183333 0.0
          0.03 -0.0183333 0.0
          0.0266667 -0.0183333 0.0
          0.0233333 -0.0183333 0.0
          0.02 -0.0183333 0.0
          0.0166667 -0.0183333 0.0
          0.0133333 -0.0183333 0.0
          0.01 -0.0183333 0.0
          0.00666667 -0.0183333 0.0
          0.00333333 -0.0183333 0.0
          0 -0.0183333 0.0
          0.1 -0.0216667 0.0
          0.0966667 -0.0216667 0.0
          0.0933333 -0.0216667 0.0
          0.09 -0.0216667 0.0
          0.0866667 -0.0216667 0.0
          0.0833333 -0.0216667 0.0
          0.08 -0.0216667 0.0
          0.0766667 -0.0216667 0.0
          0.0733333 -0.0216667 0.0
          0.07 -0.0216667 0.0
          0.0666667 -0.0216667 0.0
          0.0633333 -0.0216667 0.0
          0.06 -0.0216667 0.0
          0.0566667 -0.0216667 0.0
          0.0533333 -0.0216667 0.0
          0.05 -0.0216667 0.0
          0.0466667 -0.0216667 0.0
          0.0433333 -0.0216667 0.0
          0.04 -0.0216667 0.0
          0.0366667 -0.0216667 0.0
          0.0333333 -0.0216667 0.0
          0.03 -0.0216667 0.0
          0.0266667 -0.0216667 0.0
          0.0233333 -0.0216667 0.0
          0.02 -0.0216667 0.0
          0.0166667 -0.0216667 0.0
          0.0133333 -0.0216667 0.0
          0.01 -0.0216667 0.0
          0.00666667 -0.0216667 0.0
          0.00333333 -0.0216667 0.0
          0 -0.0216667 0.0
          0.1 -0.025 0.0
          0.0966667 -0.025 0.0
          0.0933333 -0.025 0.0
          0.09 -0.025 0.0
          0.0866667 -0.025 0.0
          0.0833333 -0.025 0.0
          0.08 -0.025 0.0
          0.0766667 -0.025 0.0
          0.0733333 -0.025 0.0
          0.07 -0.025 0.0
          0.0666667 -0.025 0.0
          0.0633333 -0.025 0.0
          0.06 -0.025 0.0
          0.0566667 -0.025 0.0
          0.0533333 -0.025 0.0
          0.05 -0.025 0.0
          0.0466667 -0.025 0.0
          0.0433333 -0.025 0.0
          0.04 -0.025 0.0
          0.0366667 -0.025 0.0
          0.0333333 -0.025 0.0
          0.03 -0.025 0.0
          0.0266667 -0.025 0.0
          0.0233333 -0.025 0.0
          0.02 -0.025 0.0
          0.0166667 -0.025 0.0
          0.0133333 -0.025 0.0
          0.01 -0.025 0.0
          0.00666667 -0.025 0.0
          0.00333333 -0.025 0.0
          0 -0.025 0.0
          0.1 -0.0283333 0.0
          0.0966667 -0.0283333 0.0
          0.0933333 -0.0283333 0.0
          0.09 -0.0283333 0.0
          0.0866667 -0.0283333 0.0
          0.0833333 -0.0283333 0.0
          0.08 -0.0283333 0.0
          0.0766667 -0.0283333 0.0
          0.0733333 -0.0283333 0.0
          0.07 -0.0283333 0.0
          0.0666667 -0.0283333 0.0
          0.0633333 -0.0283333 0.0
          0.06 -0.0283333 0.0
          0.0566667 -0.0283333 0.0
          0.0533333 -0.0283333 0.0
          0.05 -0.0283333 0.0
          0.0466667 -0.0283333 0.0
          0.0433333 -0.0283333 0.0
          0.04 -0.0283333 0.0
          0.0366667 -0.0283333 0.0
          0.0333333 -0.0283333 0.0
          0.03 -0.0283333 0.0
          0.0266667 -0.0283333 0.0
          0.0233333 -0.0283333 0.0
          0.02 -0.0283333 0.0
          0.0166667 -0.0283333 0.0
          0.0133333 -0.0283333 0.0
          0.01 -0.0283333 0.0
          0.00666667 -0.0283333 0.0
          0.00333333 -0.0283333 0.0
          0 -0.0283333 0.0
          0.1 -0.0316667 0.0
          0.0966667 -0.0316667 0.0
          0.0933333 -0.0316667 0.0
          0.09 -0.0316667 0.0
          0.0866667 -0.0316667 0.0
          0.0833333 -0.0316667 0.0
          0.08 -0.0316667 0.0
          0.0766667 -0.0316667 0.0
          0.0733333 -0.0316667 0.0
          0.07 -0.0316667 0.0
          0.0666667 -0.0316667 0.0
          0.0633333 -0.0316667 0.0
          0.06 -0.0316667 0.0
          0.0566667 -0.0316667 0.0
          0.0533333 -0.0316667 0.0
          0.05 -0.0316667 0.0
          0.0466667 -0.0316667 0.0
          0.0433333 -0.0316667 0.0
          0.04 -0.0316667 0.0
          0.0366667 -0.0316667 0.0
          0.0333333 -0.0316667 0.0
          0.03 -0.0316667 0.0
          0.0266667 -0.0316667 0.0
          0.0233333 -0.0316667 0.0
          0.02 -0.0316667 0.0
          0.0166667 -0.0316667 0.0
          0.0133333 -0.0316667 0.0
          0.01 -0.0316667 0.0
          0.00666667 -0.0316667 0.0
          0.00333333 -0.0316667 0.0
          0 -0.0316667 0.0
          0.1 -0.035 0.0
          0.0966667 -0.035 0.0
          0.0933333 -0.035 0.0
          0.09 -0.035 0.0
          0.0866667 -0.035 0.0
          0.0833333 -0.035 0.0
          0.08 -0.035 0.0
          0.0766667 -0.035 0.0
          0.0733333 -0.035 0.0
          0.07 -0.035 0.0
          0.0666667 -0.035 0.0
          0.0633333 -0.035 0.0
          0.06 -0.035 0.0
          0.0566667 -0.035 0.0
          0.0533333 -0.035 0.0
          0.05 -0.035 0.0
          0.0466667 -0.035 0.0