<?xml version="1.0"?>
<VTKFile type="UnstructuredGrid" version="0.1" byte_order="LittleEndian">
  <UnstructuredGrid>
    <Piece NumberOfPoints="961" NumberOfCells="900">
      <PointData Scalars="Temperature">
        <DataArray type="Float32" Name="Temperature" format="ascii">
          21.0341
          22.5016
          24.0212
          25.5373
          26.8104
          27.6472
          27.9661
          27.942
          27.8295
          27.8393
          27.9855
          28.13
          28.1305
          27.9872
          27.8444
          27.846
          27.9916
          28.137
          28.1386
          27.9966
          27.8545
          27.8506
          27.9714
          28.0132
          27.7347
          26.9805
          25.8429
          24.5188
          23.2456
          22.0883
          21.0267
          22.4568
          81.495
          144.801
          208.319
          263.339
          297.651
          309.68
          305.985
          299.649
          299.948
          307.469
          314.942
          314.956
          307.531
          300.128
          300.195
          307.718
          315.228
          315.286
          307.913
          300.559
          300.497
          307.164
          311.445
          300.938
          269.865
          220.459
          164.826
          111.602
          65.0916
          22.0604
          23.7596
          135.887
          257.705
          403.361
          521.615
          596.59
          608.495
          586.136
          561.157
          561.321
          587.319
          613.29
          613.305
          587.391
          561.533
          561.698
          587.803
          613.872
          613.929
          588.119
          562.43
          562.784
          588.311
          611.39
          600.991
          532.001
          424.792
          295.506
          193.119
          104.726
          23.0146
          24.8403
          180.789
          351.643
          556.147
          924.584
          924.625
          924.635
          924.617
          756.787
          756.656
          923.462
          923.483
          923.483
          923.462
          756.767
          757.011
          924.352
          924.373
          924.373
          924.352
          758.112
          758.963
          928.052
          928.07
          928.062
          928.023
          584.564
          404.395
          261.205
          138.175
          23.8224
          25.625
          213.005
          414.39
          652.976
          924.724
          924.739
          924.748
          924.747
          871.296
          870.905
          923.595
          923.598
          923.598
          923.595
          870.896
          871.193
          924.484
          924.488
          924.488
          924.484
          872.541
          873.781
          928.18
          928.181
          928.173
          928.16
          686.438
          479.061
          311.746
          163.715
          24.4451
          26.1176
          232.496
          448.787
          680.603
          925.024
          925.037
          925.045
          925.046
          907.439
          907.051
          923.901
          923.903
          923.903
          923.901
          906.973
          907.27
          924.789
          924.79
          924.79
          924.789
          908.76
          909.996
          928.471
          928.47
          928.464
          928.453
          718.532
          522.466
          344.65
          181.273
          24.8796
          26.3825
          242.646
          463.727
          691.885
          925.498
          925.51
          925.517
          925.519
          919.163
          918.78
          924.388
          924.389
          924.389
          924.388
          918.684
          918.979
          925.273
          925.274
          925.274
          925.274
          920.508
          921.735
          928.932
          928.93
          928.924
          928.914
          733.135
          543.882
          363.924
          192.206
          25.1555
          26.5108
          247.372
          470.515
          696.988
          926.143
          926.155
          926.163
          926.165
          923.349
          922.972
          925.055
          925.055
          925.055
          925.055
          922.875
          923.169
          925.936
          925.936
          925.936
          925.936
          924.7
          925.916
          929.56
          929.558
          929.552
          929.542
          740.539
          555.034
          374.481
          198.531
          25.3177
          26.5705
          249.607
          473.766
          699.61
          926.96
          926.972
          926.979
          926.982
          925.29
          924.923
          925.899
          925.899
          925.899
          925.899
          924.831
          925.123
          926.774
          926.774
          926.774
          926.774
          926.642
          927.843
          930.354
          930.352
          930.346
          930.337
          744.672
          561.082
          380.277
          202.063
          25.4092
          26.601
          250.755
          475.515
          701.236
          927.946
          927.958
          927.965
          927.967
          926.646
          926.29
          926.918
          926.918
          926.918
          926.918
          926.206
          926.497
          927.787
          927.788
          927.788
          927.788
          927.996
          929.179
          931.312
          931.31
          931.305
          931.295
          747.251
          564.569
          383.558
          204.057
          25.4607
          26.619
          251.448
          476.653
          702.498
          929.099
          929.111
          929.118
          929.12
          927.935
          927.592
          928.11
          928.111
          928.111
          928.11
          927.519
          927.807
          928.973
          928.973
          928.973
          928.973
          929.282
          930.443
          932.432
          932.43
          932.425
          932.415
          749.1
          566.778
          385.542
          205.242
          25.4913
          26.6321
          251.965
          477.571
          703.67
          930.416
          930.428
          930.435
          930.437
          929.317
          928.989
          929.473
          929.473
          929.473
          929.473
          928.929
          929.215
          930.327
          930.327
          930.327
          930.327
          930.661
          931.797
          933.711
          933.71
          933.704
          933.694
          750.635
          568.37
          386.879
          206.016
          25.511
          26.6436
          252.429
          478.438
          704.87
          931.893
          931.905
          931.912
          931.914
          930.84
          930.53
          931.003
          931.003
          931.003
          931.003
          930.485
          930.767
          931.847
          931.847
          931.847
          931.847
          932.182
          933.289
          935.146
          935.144
          935.139
          935.129
          752.071
          569.692
          387.914
          206.594
          25.5256
          26.6551
          252.893
          479.33
          706.151
          933.528
          933.54
          933.547
          933.549
          932.517
          932.227
          932.696
          932.696
          932.696
          932.696
          932.198
          932.476
          933.529
          933.529
          933.529
          933.529
          933.855
          934.931
          936.734
          936.732
          936.726
          936.717
          753.519
          570.927
          388.831
          207.09
          25.538
          26.6671
          253.382
          480.279
          707.534
          935.316
          935.328
          935.335
          935.337
          934.35
          934.08
          934.548
          934.548
          934.548
          934.548
          934.069
          934.343
          935.369
          935.369
          935.369
          935.369
          935.683
          936.724
          938.469
          938.467
          938.462
          938.452
          755.044
          572.183
          389.738
          207.573
          25.5499
          26.6801
          253.91
          481.304
          709.029
          937.253
          937.265
          937.272
          937.274
          936.334
          936.087
          936.554
          936.554
          936.554
          936.554
          936.095
          936.366
          937.363
          937.363
          937.363
          937.363
          937.662
          938.665
          940.349
          940.347
          940.341
          940.332
          756.689
          573.532
          390.709
          208.089
          25.5628
          26.694
          254.489
          482.422
          710.647
          939.334
          939.346
          939.353
          939.356
          938.465
          938.244
          938.71
          938.71
          938.71
          938.71
          938.273
          938.538
          939.505
          939.505
          939.505
          939.505
          939.789
          940.75
          942.368
          942.366
          942.36
          942.351
          758.497
          575.05
          391.822
          208.687
          25.5774
          26.7112
          255.14
          483.663
          712.407
          941.555
          941.567
          941.574
          941.576
          940.739
          940.545
          941.01
          941.01
          941.01
          941.01
          940.595
          940.856
          941.79
          941.79
          941.79
          941.79
          942.057
          942.975
          944.522
          944.52
          944.514
          944.505
          760.537
          576.847
          393.188
          209.436
          25.5973
          26.7263
          255.914
          485.092
          714.353
          943.909
          943.921
          943.928
          943.93
          943.15
          942.984
          943.448
          943.448
          943.448
          943.448
          943.058
          943.313
          944.212
          944.212
          944.212
          944.212
          944.462
          945.332
          946.804
          946.802
          946.797
          946.787
          762.923
          579.118
          395.004
          210.463
          25.619
          26.7687
          256.913
          486.864
          716.591
          946.391
          946.403
          946.41
          946.412
          945.692
          945.556
          946.019
          946.019
          946.019
          946.019
          945.655
          945.904
          946.766
          946.767
          946.767
          946.767
          946.997
          947.818
          949.21
          949.209
          949.203
          949.193
          765.879
          582.226
          397.64
          211.992
          25.6752
          26.7394
          258.42
          489.32
          719.365
          948.995
          949.007
          949.014
          949.017
          948.36
          948.255
          948.717
          948.717
          948.717
          948.717
          948.379
          948.623
          949.446
          949.446
          949.446
          949.446
          949.657
          950.426
          951.734
          951.732
          951.726
          951.717
          769.825
          586.866
          401.791
          214.498
          25.6713
          27.0787
          260.887
          493.295
          723.225
          951.715
          951.727
          951.734
          951.736
          951.148
          951.075
          951.533
          951.533
          951.533
          951.533
          951.226
          951.463
          952.243
          952.244
          952.244
          952.244
          952.435
          953.149
          954.368
          954.367
          954.361
          954.352
          775.554
          594.34
          408.842
          218.719
          26.0557
          26.1191
          266.125
          500.476
          729.485
          954.544
          954.555
          954.563
          954.565
          954.052
          954.012
          954.462
          954.462
          954.463
          954.463
          954.191
          954.421
          955.153
          955.153
          955.153
          955.153
          955.329
          955.986
          957.107
          957.105
          957.101
          957.092
          784.519
          607.163
          421.263
          226.847
          25.1656
          30.7755
          275.226
          515.591
          740.857
          957.474
          957.486
          957.493
          957.496
          957.076
          957.071
          957.496
          957.497
          957.497
          957.498
          957.278
          957.501
          958.166
          958.166
          958.167
          958.168
          958.341
          958.938
          959.942
          959.941
          959.938
          959.93
          799.319
          629.749
          444.746
          240.397
          29.9439
          13.8563
          303.387
          545.898
          764.101
          960.498
          960.51
          960.519
          960.523
          960.247
          960.276
          960.627
          960.628
          960.63
          960.631
          960.512
          960.726
          961.274
          961.275
          961.279
          961.28
          961.497
          962.03
          962.866
          962.867
          962.866
          962.861
          823.698
          670.791
          487.461
          274.956
          13.1344
          85.8091
          338.788
          621.555
          808.455
          963.603
          963.618
          963.634
          963.642
          963.666
          963.727
          963.845
          963.848
          963.854
          963.858
          963.994
          964.195
          964.467
          964.472
          964.481
          964.487
          964.893
          965.355
          965.867
          965.872
          965.879
          965.88
          861.347
          740.86
          580.047
          318.766
          85.4802
          -192.295
          566.304
          766.195
          880.06
          966.771
          966.791
          966.839
          966.856
          967.668
          967.747
          967.136
          967.144
          967.167
          967.175
          968.057
          968.229
          967.728
          967.74
          967.774
          967.787
          968.856
          969.22
          968.928
          968.941
          968.977
          968.988
          913.107
          845.646
          745.624
          556.881
          -193.124
          967.966
          970.852
          972.051
          972.253
          970.561
          969.708
          969.799
          970.867
          972.972
          973.056
          971.133
          970.172
          970.217
          971.287
          973.433
          973.543
          971.672
          970.74
          970.806
          971.901
          974.108
          974.3
          972.61
          971.758
          971.829
          972.862
          974.963
          975.249
          974.76
          973.42
          970.487
          969.563
          971.473
          972.539
          972.751
          972.51
          972.222
          972.353
          972.932
          973.498
          973.582
          973.179
          972.768
          972.832
          973.388
          973.957
          974.063
          973.687
          973.307
          973.401
          973.996
          974.619
          974.802
          974.502
          974.175
          974.273
          974.829
          975.41
          975.637
          975.176
          973.999
          972.049
          971.82
          972.869
          973.585
          973.956
          974.05
          974.084
          974.232
          974.506
          974.76
          974.842
          974.757
          974.666
          974.737
          974.973
          975.217
          975.309
          975.243
          975.18
          975.282
          975.558
          975.852
          975.998
          975.983
          975.949
          976.052
          976.291
          976.511
          976.487
          976.078
          975.298
          974.225
          973.239
          973.46
          974.059
          974.446
          974.629
          974.738
          974.888
          975.096
          975.281
          975.363
          975.348
          975.329
          975.4
          975.565
          975.737
          975.825
          975.827
          975.834
          975.937
          976.141
          976.359
          976.495
          976.54
          976.571
          976.67
          976.835
          976.951
          976.866
          976.48
          975.847
          975.61
        </DataArray>
      </PointData>
      <CellData>
      </CellData>
      <Points>
        <DataArray type="Float32" NumberOfComponents="3" format="ascii">
          0.1 0.005 0.0
          0.0966667 0.005 0.0
          0.0933333 0.005 0.0
          0.09 0.005 0.0
          0.0866667 0.005 0.0
          0.0833333 0.005 0.0
          0.08 0.005 0.0
          0.0766667 0.005 0.0
          0.0733333 0.005 0.0
          0.07 0.005 0.0
          0.0666667 0.005 0.0
          0.0633333 0.005 0.0
          0.06 0.005 0.0
          0.0566667 0.005 0.0
          0.0533333 0.005 0.0
          0.05 0.005 0.0
          0.0466667 0.005 0.0
          0.0433333 0.005 0.0
          0.04 0.005 0.0
          0.0366667 0.005 0.0
          0.0333333 0.005 0.0
          0.03 0.005 0.0
          0.0266667 0.005 0.0
          0.0233333 0.005 0.0
          0.02 0.005 0.0
          0.0166667 0.005 0.0
          0.0133333 0.005 0.0
          0.01 0.005 0.0
          0.00666667 0.005 0.0
          0.00333333 0.005 0.0
          0 0.005 0.0
          0.1 0.00166667 0.0
          0.0966667 0.00166667 0.0
          0.0933333 0.00166667 0.0
          0.09 0.00166667 0.0
          0.0866667 0.00166667 0.0
          0.0833333 0.00166667 0.0
          0.08 0.00166667 0.0
          0.0766667 0.00166667 0.0
          0.0733333 0.00166667 0.0
          0.07 0.00166667 0.0
          0.0666667 0.00166667 0.0
          0.0633333 0.00166667 0.0
          0.06 0.00166667 0.0
          0.0566667 0.00166667 0.0
          0.0533333 0.00166667 0.0
          0.05 0.00166667 0.0
          0.0466667 0.00166667 0.0
          0.0433333 0.00166667 0.0
          0.04 0.00166667 0.0
          0.0366667 0.00166667 0.0
          0.0333333 0.00166667 0.0
          0.03 0.00166667 0.0
          0.0266667 0.00166667 0.0
          0.0233333 0.00166667 0.0
          0.02 0.00166667 0.0
          0.0166667 0.00166667 0.0
          0.0133333 0.00166667 0.0
          0.01 0.00166667 0.0
          0.00666667 0.00166667 0.0
          0.00333333 0.00166667 0.0
          0 0.00166667 0.0
          0.1 -0.00166667 0.0
          0.0966667 -0.00166667 0.0
          0.0933333 -0.00166667 0.0
          0.09 -0.00166667 0.0
          0.0866667 -0.00166667 0.0
          0.0833333 -0.00166667 0.0
          0.08 -0.00166667 0.0
          0.0766667 -0.00166667 0.0
          0.0733333 -0.00166667 0.0
          0.07 -0.00166667 0.0
          0.0666667 -0.00166667 0.0
          0.0633333 -0.00166667 0.0
          0.06 -0.00166667 0.0
          0.0566667 -0.00166667 0.0
          0.0533333 -0.00166667 0.0
          0.05 -0.00166667 0.0
          0.0466667 -0.00166667 0.0
          0.0433333 -0.00166667 0.0
          0.04 -0.00166667 0.0
          0.0366667 -0.00166667 0.0
          0.0333333 -0.00166667 0.0
          0.03 -0.00166667 0.0
          0.0266667 -0.00166667 0.0
          0.0233333 -0.00166667 0.0
          0.02 -0.00166667 0.0
          0.0166667 -0.00166667 0.0
          0.0133333 -0.00166667 0.0
          0.01 -0.00166667 0.0
          0.00666667 -0.00166667 0.0
          0.00333333 -0.00166667 0.0
          0 -0.00166667 0.0
          0.1 -0.005 0.0
          0.0966667 -0.005 0.0
          0.0933333 -0.005 0.0
          0.09 -0.005 0.0
          0.0866667 -0.005 0.0
          0.0833333 -0.005 0.0
          0.08 -0.005 0.0
          0.0766667 -0.005 0.0
          0.0733333 -0.005 0.0
          0.07 -0.005 0.0
          0.0666667 -0.005 0.0
          0.0633333 -0.005 0.0
          0.06 -0.005 0.0
          0.0566667 -0.005 0.0
          0.0533333 -0.005 0.0
          0.05 -0.005 0.0
          0.0466667 -0.005 0.0
          0.0433333 -0.005 0.0
          0.04 -0.005 0.0
          0.0366667 -0.005 0.0
          0.0333333 -0.005 0.0
          0.03 -0.005 0.0
          0.0266667 -0.005 0.0
          0.0233333 -0.005 0.0
          0.02 -0.005 0.0
          0.0166667 -0.005 0.0
          0.0133333 -0.005 0.0
          0.01 -0.005 0.0
          0.00666667 -0.005 0.0
          0.00333333 -0.005 0.0
          0 -0.005 0.0
          0.1 -0.00833333 0.0
          0.0966667 -0.00833333 0.0
          0.0933333 -0.00833333 0.0
          0.09 -0.00833333 0.0
          0.0866667 -0.00833333 0.0
          0.0833333 -0.00833333 0.0
          0.08 -0.00833333 0.0
          0.0766667 -0.00833333 0.0
          0.0733333 -0.00833333 0.0
          0.07 -0.00833333 0.0
          0.0666667 -0.00833333 0.0
          0.0633333 -0.00833333 0.0
          0.06 -0.00833333 0.0
          0.0566667 -0.00833333 0.0
          0.0533333 -0.00833333 0.0
          0.05 -0.00833333 0.0
          0.0466667 -0.00833333 0.0
          0.0433333 -0.00833333 0.0
          0.04 -0.00833333 0.0
          0.0366667 -0.00833333 0.0
          0.0333333 -0.00833333 0.0
          0.03 -0.00833333 0.0
          0.0266667 -0.00833333 0.0
          0.0233333 -0.00833333 0.0
          0.02 -0.00833333 0.0
          0.0166667 -0.00833333 0.0
          0.0133333 -0.00833333 0.0
          0.01 -0.00833333 0.0
          0.00666667 -0.00833333 0.0
          0.00333333 -0.00833333 0.0
          0 -0.00833333 0.0
          0.1 -0.0116667 0.0
          0.0966667 -0.0116667 0.0
          0.0933333 -0.0116667 0.0
          0.09 -0.0116667 0.0
          0.0866667 -0.0116667 0.0
          0.0833333 -0.0116667 0.0
          0.08 -0.0116667 0.0
          0.0766667 -0.0116667 0.0
          0.0733333 -0.0116667 0.0
          0.07 -0.0116667 0.0
          0.0666667 -0.0116667 0.0
          0.0633333 -0.0116667 0.0
          0.06 -0.0116667 0.0
          0.0566667 -0.0116667 0.0
          0.0533333 -0.0116667 0.0
          0.05 -0.0116667 0.0
          0.0466667 -0.0116667 0.0
          0.0433333 -0.0116667 0.0
          0.04 -0.0116667 0.0
          0.0366667 -0.0116667 0.0
          0.0333333 -0.0116667 0.0
          0.03 -0.0116667 0.0
          0.0266667 -0.0116667 0.0
          0.0233333 -0.0116667 0.0
          0.02 -0.0116667 0.0
          0.0166667 -0.0116667 0.0
          0.0133333 -0.0116667 0.0
          0.01 -0.0116667 0.0
          0.00666667 -0.0116667 0.0
          0.00333333 -0.0116667 0.0
          0 -0.0116667 0.0
          0.1 -0.015 0.0
          0.0966667 -0.015 0.0
          0.0933333 -0.015 0.0
          0.09 -0.015 0.0
          0.0866667 -0.015 0.0
          0.0833333 -0.015 0.0
          0.08 -0.015 0.0
          0.0766667 -0.015 0.0
          0.0733333 -0.015 0.0
          0.07 -0.015 0.0
          0.0666667 -0.015 0.0
          0.0633333 -0.015 0.0
          0.06 -0.015 0.0
          0.0566667 -0.015 0.0
          0.0533333 -0.015 0.0
          0.05 -0.015 0.0
          0.0466667 -0.015 0.0
          0.0433333 -0.015 0.0
          0.04 -0.015 0.0
          0.0366667 -0.015 0.0
          0.0333333 -0.015 0.0
          0.03 -0.015 0.0
          0.0266667 -0.015 0.0
          0.0233333 -0.015 0.0
          0.02 -0.015 0.0
          0.0166667 -0.015 0.0
          0.0133333 -0.015 0.0
          0.01 -0.015 0.0
          0.00666667 -0.015 0.0
          0.00333333 -0.015 0.0
          0 -0.015 0.0
          0.1 -0.0183333 0.0
          0.0966667 -0.0183333 0.0
          0.0933333 -0.0183333 0.0
          0.09 -0.0183333 0.0
          0.0866667 -0.0183333 0.0
          0.0833333 -0.0183333 0.0
          0.08 -0.0183333 0.0
          0.0766667 -0.0183333 0.0
          0.0733333 -0.0183333 0.0
          0.07 -0.0183333 0.0
          0.0666667 -0.0183333 0.0
          0.0633333 -0.0183333 0.0
          0.06 -0.0183333 0.0
          0.0566667 -0.0183333 0.0
          0.0533333 -0.0183333 0.0
          0.05 -0.0183333 0.0
          0.0466667 -0.0183333 0.0
          0.0433333 -0.0183333 0.0
          0.04 -0.0183333 0.0
          0.0366667 -0.0183333 0.0
          0.0333333 -0.0183333 0.0
          0.03 -0.0183333 0.0
          0.0266667 -0.0183333 0.0
          0.0233333 -0.0183333 0.0
          0.02 -0.0183333 0.0
          0.0166667 -0.0183333 0.0
          0.0133333 -0.0183333 0.0
          0.01 -0.0183333 0.0
          0.00666667 -0.0183333 0.0
          0.00333333 -0.0183333 0.0
          0 -0.0183333 0.0
          0.1 -0.0216667 0.0
          0.0966667 -0.0216667 0.0
          0.0933333 -0.0216667 0.0
          0.09 -0.0216667 0.0
          0.0866667 -0.0216667 0.0
          0.0833333 -0.0216667 0.0
          0.08 -0.0216667 0.0
          0.0766667 -0.0216667 0.0
          0.0733333 -0.0216667 0.0
          0.07 -0.0216667 0.0
          0.0666667 -0.0216667 0.0
          0.0633333 -0.0216667 0.0
          0.06 -0.0216667 0.0
          0.0566667 -0.0216667 0.0
          0.0533333 -0.0216667 0.0
          0.05 -0.0216667 0.0
          0.0466667 -0.0216667 0.0
          0.0433333 -0.0216667 0.0
          0.04 -0.0216667 0.0
          0.0366667 -0.0216667 0.0
          0.0333333 -0.0216667 0.0
          0.03 -0.0216667 0.0
          0.0266667 -0.0216667 0.0
          0.0233333 -0.0216667 0.0
          0.02 -0.0216667 0.0
          0.0166667 -0.0216667 0.0
          0.0133333 -0.0216667 0.0
          0.01 -0.0216667 0.0
          0.00666667 -0.0216667 0.0
          0.00333333 -0.0216667 0.0
          0 -0.0216667 0.0
          0.1 -0.025 0.0
          0.0966667 -0.025 0.0
          0.0933333 -0.025 0.0
          0.09 -0.025 0.0
          0.0866667 -0.025 0.0
          0.0833333 -0.025 0.0
          0.08 -0.025 0.0
          0.0766667 -0.025 0.0
          0.0733333 -0.025 0.0
          0.07 -0.025 0.0
          0.0666667 -0.025 0.0
          0.0633333 -0.025 0.0
          0.06 -0.025 0.0
          0.0566667 -0.025 0.0
          0.0533333 -0.025 0.0
          0.05 -0.025 0.0
          0.0466667 -0.025 0.0
          0.0433333 -0.025 0.0
          0.04 -0.025 0.0
          0.0366667 -0.025 0.0
          0.0333333 -0.025 0.0
          0.03 -0.025 0.0
          0.0266667 -0.025 0.0
          0.0233333 -0.025 0.0
          0.02 -0.025 0.0
          0.0166667 -0.025 0.0
          0.0133333 -0.025 0.0
          0.01 -0.025 0.0
          0.00666667 -0.025 0.0
          0.00333333 -0.025 0.0
          0 -0.025 0.0
          0.1 -0.0283333 0.0
          0.0966667 -0.0283333 0.0
          0.0933333 -0.0283333 0.0
          0.09 -0.0283333 0.0
          0.0866667 -0.0283333 0.0
          0.0833333 -0.0283333 0.0
          0.08 -0.0283333 0.0
          0.0766667 -0.0283333 0.0
          0.0733333 -0.0283333 0.0
          0.07 -0.0283333 0.0
          0.0666667 -0.0283333 0.0
          0.0633333 -0.0283333 0.0
          0.06 -0.0283333 0.0
          0.0566667 -0.0283333 0.0
          0.0533333 -0.0283333 0.0
          0.05 -0.0283333 0.0
          0.0466667 -0.0283333 0.0
          0.0433333 -0.0283333 0.0
          0.04 -0.0283333 0.0
          0.0366667 -0.0283333 0.0
          0.0333333 -0.0283333 0.0
          0.03 -0.0283333 0.0
          0.0266667 -0.0283333 0.0
          0.0233333 -0.0283333 0.0
          0.02 -0.0283333 0.0
          0.0166667 -0.0283333 0.0
          0.0133333 -0.0283333 0.0
          0.01 -0.0283333 0.0
          0.00666667 -0.0283333 0.0
          0.00333333 -0.0283333 0.0
          0 -0.0283333 0.0
          0.1 -0.0316667 0.0
          0.0966667 -0.0316667 0.0
          0.0933333 -0.0316667 0.0
          0.09 -0.0316667 0.0
          0.0866667 -0.0316667 0.0
          0.0833333 -0.0316667 0.0
          0.08 -0.0316667 0.0
          0.0766667 -0.0316667 0.0
          0.0733333 -0.0316667 0.0
          0.07 -0.0316667 0.0
          0.0666667 -0.0316667 0.0
          0.0633333 -0.0316667 0.0
          0.06 -0.0316667 0.0
          0.0566667 -0.0316667 0.0
          0.0533333 -0.0316667 0.0
          0.05 -0.0316667 0.0
          0.0466667 -0.0316667 0.0
          0.0433333 -0.0316667 0.0
          0.04 -0.0316667 0.0
          0.0366667 -0.0316667 0.0
          0.0333333 -0.0316667 0.0
          0.03 -0.0316667 0.0
          0.0266667 -0.0316667 0.0
          0.0233333 -0.0316667 0.0
          0.02 -0.0316667 0.0
          0.0166667 -0.0316667 0.0
          0.0133333 -0.0316667 0.0
          0.01 -0.0316667 0.0
          0.00666667 -0.0316667 0.0
          0.00333333 -0.0316667 0.0
          0 -0.0316667 0.0
          0.1 -0.035 0.0
          0.0966667 -0.035 0.0
          0.0933333 -0.035 0.0
          0.09 -0.035 0.0
          0.0866667 -0.035 0.0
          0.0833333 -0.035 0.0
          0.08 -0.035 0.0
          0.0766667 -0.035 0.0
          0.0733333 -0.035 0.0
          0.07 -0.035 0.0
          0.0666667 -0.035 0.0
          0.0633333 -0.035 0.0
          0.06 -0.035 0.0
          0.0566667 -0.035 0.0
          0.0533333 -0.035 0.0
          0.05 -0.035 0.0
          0.0466667 -0.035 0.0