<?xml version="1.0"?>
<VTKFile type="UnstructuredGrid" version="0.1" byte_order="LittleEndian">
  <UnstructuredGrid>
    <Piece NumberOfPoints="961" NumberOfCells="900">
      <PointData Scalars="Temperature">
        <DataArray type="Float32" Name="Temperature" format="ascii">
          49.8586
          49.8586
          49.8586
          49.8586
          49.8586
          49.8586
          49.8586
          49.8586
          49.8586
          49.8586
          49.8586
          49.8586
          49.8586
          49.8586
          49.8586
          49.8586
          49.8586
          49.8586
          49.8586
          49.8586
          49.8586
          49.8586
          49.8586
          49.8586
          49.8586
          49.8586
          49.8586
          49.8586
          49.8586
          49.8586
          49.8586
          49.8586
          49.8586
          49.8586
          49.8586
          49.8586
          49.8586
          49.8586
          49.8586
          49.8586
          49.8586
          49.8586
          49.8586
          49.8586
          49.8586
          49.8586
          49.8586
          49.8586
          49.8586
          49.8586
          49.8586
          49.8586
          49.8586
          49.8586
          49.8586
          49.8586
          49.8586
          49.8586
          49.8586
          49.8586
          49.8586
          49.8586
          49.8586
          49.8586
          49.8586
          49.8586
          49.8586
          49.8586
          49.8586
          49.8586
          49.8586
          49.8586
          49.8586
          49.8586
          49.8586
          49.8586
          49.8586
          49.8586
          49.8586
          49.8586
          49.8586
          49.8586
          49.8586
          49.8586
          49.8586
          49.8586
          49.8586
          49.8586
          49.8586
          49.8586
          49.8586
          49.8586
          49.8586
          49.8586
          49.8586
          49.8586
          49.8586
          77.2984
          77.3009
          77.3014
          77.3002
          49.8586
          49.8586
          77.6713
          77.6727
          77.6727
          77.6713
          49.8586
          49.8586
          77.7096
          77.711
          77.711
          77.7096
          49.8586
          49.8586
          77.3838
          77.385
          77.3846
          77.3823
          49.8586
          49.8586
          49.8586
          49.8586
          49.8586
          49.8586
          49.8586
          49.8586
          49.8586
          77.3019
          77.3028
          77.3033
          77.3032
          49.8586
          49.8586
          77.6741
          77.6744
          77.6744
          77.6741
          49.8586
          49.8586
          77.7124
          77.7126
          77.7126
          77.7124
          49.8586
          49.8586
          77.3867
          77.3869
          77.3865
          77.3856
          49.8586
          49.8586
          49.8586
          49.8586
          49.8586
          49.8586
          49.8586
          49.8586
          49.8586
          77.305
          77.3058
          77.3062
          77.3062
          49.8586
          49.8586
          77.6767
          77.6769
          77.6769
          77.6767
          49.8586
          49.8586
          77.715
          77.7151
          77.7151
          77.715
          49.8586
          49.8586
          77.3897
          77.3898
          77.3894
          77.3887
          49.8586
          49.8586
          49.8586
          49.8586
          49.8586
          49.8586
          49.8586
          49.8586
          49.8586
          77.3087
          77.3094
          77.3098
          77.3099
          49.8586
          49.8586
          77.6796
          77.6797
          77.6797
          77.6796
          49.8586
          49.8586
          77.7179
          77.718
          77.718
          77.7179
          49.8586
          49.8586
          77.3933
          77.3932
          77.3929
          77.3923
          49.8586
          49.8586
          49.8586
          49.8586
          49.8586
          49.8586
          49.8586
          49.8586
          49.8586
          77.3129
          77.3136
          77.314
          77.314
          49.8586
          49.8586
          77.6828
          77.6829
          77.6829
          77.6828
          49.8586
          49.8586
          77.7211
          77.7212
          77.7212
          77.7211
          49.8586
          49.8586
          77.3973
          77.3972
          77.3969
          77.3963
          49.8586
          49.8586
          49.8586
          49.8586
          49.8586
          49.8586
          49.8586
          49.8586
          49.8586
          77.3176
          77.3183
          77.3187
          77.3188
          49.8586
          49.8586
          77.6862
          77.6863
          77.6863
          77.6862
          49.8586
          49.8586
          77.7245
          77.7246
          77.7246
          77.7245
          49.8586
          49.8586
          77.4018
          77.4018
          77.4014
          77.4008
          49.8586
          49.8586
          49.8586
          49.8586
          49.8586
          49.8586
          49.8586
          49.8586
          49.8586
          77.3229
          77.3236
          77.324
          77.324
          49.8586
          49.8586
          77.69
          77.6901
          77.6901
          77.69
          49.8586
          49.8586
          77.7283
          77.7284
          77.7283
          77.7283
          49.8586
          49.8586
          77.4068
          77.4068
          77.4064
          77.4058
          49.8586
          49.8586
          49.8586
          49.8586
          49.8586
          49.8586
          49.8586
          49.8586
          49.8586
          77.3287
          77.3294
          77.3298
          77.3298
          49.8586
          49.8586
          77.694
          77.6941
          77.6941
          77.694
          49.8586
          49.8586
          77.7323
          77.7324
          77.7324
          77.7323
          49.8586
          49.8586
          77.4123
          77.4122
          77.4119
          77.4113
          49.8586
          49.8586
          49.8586
          49.8586
          49.8586
          49.8586
          49.8586
          49.8586
          49.8586
          77.335
          77.3357
          77.3361
          77.3362
          49.8586
          49.8586
          77.6983
          77.6984
          77.6984
          77.6983
          49.8586
          49.8586
          77.7366
          77.7367
          77.7367
          77.7366
          49.8586
          49.8586
          77.4182
          77.4182
          77.4179
          77.4173
          49.8586
          49.8586
          49.8586
          49.8586
          49.8586
          49.8586
          49.8586
          49.8586
          49.8586
          77.3418
          77.3426
          77.343
          77.343
          49.8586
          49.8586
          77.7029
          77.703
          77.703
          77.7029
          49.8586
          49.8586
          77.7412
          77.7413
          77.7413
          77.7412
          49.8586
          49.8586
          77.4247
          77.4247
          77.4244
          77.4238
          49.8586
          49.8586
          49.8586
          49.8586
          49.8586
          49.8586
          49.8586
          49.8586
          49.8586
          77.3493
          77.35
          77.3504
          77.3504
          49.8586
          49.8586
          77.7078
          77.7079
          77.7079
          77.7078
          49.8586
          49.8586
          77.7461
          77.7462
          77.7462
          77.7461
          49.8586
          49.8586
          77.4316
          77.4316
          77.4313
          77.4307
          49.8586
          49.8586
          49.8586
          49.8586
          49.8586
          49.8586
          49.8586
          49.8586
          49.8586
          77.3572
          77.3579
          77.3583
          77.3584
          49.8586
          49.8586
          77.7129
          77.713
          77.713
          77.7129
          49.8586
          49.8586
          77.7512
          77.7513
          77.7513
          77.7512
          49.8586
          49.8586
          77.4391
          77.4391
          77.4387
          77.4381
          49.8586
          49.8586
          49.8586
          49.8586
          49.8586
          49.8586
          49.8586
          49.8586
          49.8586
          77.3657
          77.3664
          77.3668
          77.3668
          49.8586
          49.8586
          77.7184
          77.7185
          77.7185
          77.7184
          49.8586
          49.8586
          77.7567
          77.7568
          77.7568
          77.7567
          49.8586
          49.8586
          77.447
          77.447
          77.4467
          77.446
          49.8586
          49.8586
          49.8586
          49.8586
          49.8586
          49.8586
          49.8586
          49.8586
          49.8586
          77.3747
          77.3754
          77.3758
          77.3758
          49.8586
          49.8586
          77.7241
          77.7242
          77.7242
          77.7241
          49.8586
          49.8586
          77.7624
          77.7625
          77.7625
          77.7624
          49.8586
          49.8586
          77.4554
          77.4554
          77.4551
          77.4544
          49.8586
          49.8586
          49.8586
          49.8586
          49.8586
          49.8586
          49.8586
          49.8586
          49.8586
          77.3842
          77.3849
          77.3853
          77.3854
          49.8586
          49.8586
          77.7301
          77.7302
          77.7302
          77.7301
          49.8586
          49.8586
          77.7684
          77.7685
          77.7685
          77.7684
          49.8586
          49.8586
          77.4643
          77.4643
          77.4639
          77.4633
          49.8586
          49.8586
          49.8586
          49.8586
          49.8586
          49.8586
          49.8586
          49.8586
          49.8586
          77.3943
          77.395
          77.3954
          77.3955
          49.8586
          49.8586
          77.7364
          77.7365
          77.7365
          77.7364
          49.8586
          49.8586
          77.7747
          77.7748
          77.7748
          77.7747
          49.8586
          49.8586
          77.4736
          77.4736
          77.4733
          77.4727
          49.8586
          49.8586
          49.8586
          49.8586
          49.8586
          49.8586
          49.8586
          49.8586
          49.8586
          77.4049
          77.4056
          77.406
          77.4061
          49.8586
          49.8586
          77.743
          77.7431
          77.7431
          77.743
          49.8586
          49.8586
          77.7813
          77.7814
          77.7814
          77.7813
          49.8586
          49.8586
          77.4835
          77.4835
          77.4832
          77.4826
          49.8586
          49.8586
          49.8586
          49.8586
          49.8586
          49.8586
          49.8586
          49.8586
          49.8586
          77.4161
          77.4168
          77.4172
          77.4172
          49.8586
          49.8586
          77.7498
          77.7499
          77.7499
          77.7499
          49.8586
          49.8586
          77.7882
          77.7883
          77.7883
          77.7882
          49.8586
          49.8586
          77.4938
          77.4938
          77.4935
          77.4929
          49.8586
          49.8586
          49.8586
          49.8586
          49.8586
          49.8586
          49.8586
          49.8586
          49.8586
          77.4277
          77.4285
          77.4289
          77.4289
          49.8586
          49.8586
          77.7569
          77.7571
          77.7571
          77.757
          49.8586
          49.8586
          77.7954
          77.7954
          77.7954
          77.7953
          49.8586
          49.8586
          77.5047
          77.5047
          77.5043
          77.5037
          49.8586
          49.8586
          49.8586
          49.8586
          49.8586
          49.8586
          49.8586
          49.8586
          49.8586
          77.4399
          77.4406
          77.4411
          77.4412
          49.8586
          49.8586
          77.7643
          77.7644
          77.7645
          77.7645
          49.8586
          49.8586
          77.8028
          77.8029
          77.8028
          77.8027
          49.8586
          49.8586
          77.5161
          77.516
          77.5156
          77.515
          49.8586
          49.8586
          49.8586
          49.8586
          49.8586
          49.8586
          49.8586
          49.8586
          49.8586
          77.4524
          77.4533
          77.454
          77.4542
          49.8586
          49.8586
          77.7718
          77.772
          77.7724
          77.7724
          49.8586
          49.8586
          77.8107
          77.8107
          77.8105
          77.8103
          49.8586
          49.8586
          77.5281
          77.5279
          77.5272
          77.5265
          49.8586
          49.8586
          49.8586
          49.8586
          49.8586
          49.8586
          49.8586
          49.8586
          49.8586
          77.4649
          77.4661
          77.4677
          77.4683
          49.8586
          49.8586
          77.7791
          77.7797
          77.7807
          77.7811
          49.8586
          49.8586
          77.8192
          77.8189
          77.8182
          77.8178
          49.8586
          49.8586
          77.5411
          77.5405
          77.539
          77.538
          49.8586
          49.8586
          49.8586
          49.8586
          49.8586
          49.8586
          49.8586
          49.8586
          49.8586
          77.4759
          77.4786
          77.4827
          77.4848
          49.8586
          49.8586
          77.7851
          77.7869
          77.79
          77.7916
          49.8586
          49.8586
          77.829
          77.8279
          77.8258
          77.8245
          49.8586
          49.8586
          77.5565
          77.5544
          77.5504
          77.5479
          49.8586
          49.8586
          49.8586
          49.8586
          49.8586
          49.8586
          49.8586
          49.8586
          49.8586
          77.4823
          77.4876
          77.5019
          77.507
          49.8586
          49.8586
          77.7873
          77.7914
          77.8026
          77.8066
          49.8586
          49.8586
          77.842
          77.8392
          77.8315
          77.8287
          49.8586
          49.8586
          77.5775
          77.5725
          77.5584
          77.5531
          49.8586
          49.8586
          49.8586
          49.8586
          49.8586
          77.236
          77.3117
          77.3647
          77.4126
          77.4656
          77.4934
          77.5212
          77.5604
          77.6412
          77.7025
          77.7664
          77.7956
          77.8178
          77.8412
          77.8755
          77.8833
          77.8674
          77.8531
          77.8378
          77.8158
          77.7629
          77.7067
          77.6291
          77.5907
          77.5633
          77.5353
          77.4822
          77.4358
          77.3882
          77.3354
          77.2597
          77.2669
          77.319
          77.3673
          77.4134
          77.4562
          77.4965
          77.5368
          77.5862
          77.6431
          77.7046
          77.7589
          77.8037
          77.8374
          77.8648
          77.884
          77.8916
          77.8865
          77.8717
          77.849
          77.8141
          77.7671
          77.7097
          77.6544
          77.6058
          77.5656
          77.5252
          77.4823
          77.4367
          77.3911
          77.3427
          77.2906
          77.3012
          77.333
          77.3715
          77.4134
          77.456
          77.499
          77.5443
          77.594
          77.6489
          77.7074
          77.7686
          77.8228
          77.8627
          77.8911
          77.909
          77.916
          77.912
          77.8972
          77.8711
          77.8321
          77.7778
          77.7178
          77.6627
          77.6131
          77.5677
          77.5245
          77.4813
          77.438
          77.3955
          77.3569
          77.3251
          77.3265
          77.3388
          77.3735
          77.4139
          77.4563
          77.5001
          77.5463
          77.5964
          77.6507
          77.7095
          77.7757
          77.8358
          77.8776
          77.9066
          77.9244
          77.9313
          77.9274
          77.9123
          77.8853
          77.8447
          77.7854
          77.7209
          77.6653
          77.6151
          77.5687
          77.5246
          77.4813
          77.4385
          77.3977
          77.3628
          77.3503
        </DataArray>
      </PointData>
      <CellData>
      </CellData>
      <Points>
        <DataArray type="Float32" NumberOfComponents="3" format="ascii">
          0.039 0.00195 0.0
          0.0377 0.00195 0.0
          0.0364 0.00195 0.0
          0.0351 0.00195 0.0
          0.0338 0.00195 0.0
          0.0325 0.00195 0.0
          0.0312 0.00195 0.0
          0.0299 0.00195 0.0
          0.0286 0.00195 0.0
          0.0273 0.00195 0.0
          0.026 0.00195 0.0
          0.0247 0.00195 0.0
          0.0234 0.00195 0.0
          0.0221 0.00195 0.0
          0.0208 0.00195 0.0
          0.0195 0.00195 0.0
          0.0182 0.00195 0.0
          0.0169 0.00195 0.0
          0.0156 0.00195 0.0
          0.0143 0.00195 0.0
          0.013 0.00195 0.0
          0.0117 0.00195 0.0
          0.0104 0.00195 0.0
          0.0091 0.00195 0.0
          0.0078 0.00195 0.0
          0.0065 0.00195 0.0
          0.0052 0.00195 0.0
          0.0039 0.00195 0.0
          0.0026 0.00195 0.0
          0.0013 0.00195 0.0
          0 0.00195 0.0
          0.039 0.00065 0.0
          0.0377 0.00065 0.0
          0.0364 0.00065 0.0
          0.0351 0.00065 0.0
          0.0338 0.00065 0.0
          0.0325 0.00065 0.0
          0.0312 0.00065 0.0
          0.0299 0.00065 0.0
          0.0286 0.00065 0.0
          0.0273 0.00065 0.0
          0.026 0.00065 0.0
          0.0247 0.00065 0.0
          0.0234 0.00065 0.0
          0.0221 0.00065 0.0
          0.0208 0.00065 0.0
          0.0195 0.00065 0.0
          0.0182 0.00065 0.0
          0.0169 0.00065 0.0
          0.0156 0.00065 0.0
          0.0143 0.00065 0.0
          0.013 0.00065 0.0
          0.0117 0.00065 0.0
          0.0104 0.00065 0.0
          0.0091 0.00065 0.0
          0.0078 0.00065 0.0
          0.0065 0.00065 0.0
          0.0052 0.00065 0.0
          0.0039 0.00065 0.0
          0.0026 0.00065 0.0
          0.0013 0.00065 0.0
          0 0.00065 0.0
          0.039 -0.00065 0.0
          0.0377 -0.00065 0.0
          0.0364 -0.00065 0.0
          0.0351 -0.00065 0.0
          0.0338 -0.00065 0.0
          0.0325 -0.00065 0.0
          0.0312 -0.00065 0.0
          0.0299 -0.00065 0.0
          0.0286 -0.00065 0.0
          0.0273 -0.00065 0.0
          0.026 -0.00065 0.0
          0.0247 -0.00065 0.0
          0.0234 -0.00065 0.0
          0.0221 -0.00065 0.0
          0.0208 -0.00065 0.0
          0.0195 -0.00065 0.0
          0.0182 -0.00065 0.0
          0.0169 -0.00065 0.0
          0.0156 -0.00065 0.0
          0.0143 -0.00065 0.0
          0.013 -0.00065 0.0
          0.0117 -0.00065 0.0
          0.0104 -0.00065 0.0
          0.0091 -0.00065 0.0
          0.0078 -0.00065 0.0
          0.0065 -0.00065 0.0
          0.0052 -0.00065 0.0
          0.0039 -0.00065 0.0
          0.0026 -0.00065 0.0
          0.0013 -0.00065 0.0
          0 -0.00065 0.0
          0.039 -0.00195 0.0
          0.0377 -0.00195 0.0
          0.0364 -0.00195 0.0
          0.0351 -0.00195 0.0
          0.0338 -0.00195 0.0
          0.0325 -0.00195 0.0
          0.0312 -0.00195 0.0
          0.0299 -0.00195 0.0
          0.0286 -0.00195 0.0
          0.0273 -0.00195 0.0
          0.026 -0.00195 0.0
          0.0247 -0.00195 0.0
          0.0234 -0.00195 0.0
          0.0221 -0.00195 0.0
          0.0208 -0.00195 0.0
          0.0195 -0.00195 0.0
          0.0182 -0.00195 0.0
          0.0169 -0.00195 0.0
          0.0156 -0.00195 0.0
          0.0143 -0.00195 0.0
          0.013 -0.00195 0.0
          0.0117 -0.00195 0.0
          0.0104 -0.00195 0.0
          0.0091 -0.00195 0.0
          0.0078 -0.00195 0.0
          0.0065 -0.00195 0.0
          0.0052 -0.00195 0.0
          0.0039 -0.00195 0.0
          0.0026 -0.00195 0.0
          0.0013 -0.00195 0.0
          0 -0.00195 0.0
          0.039 -0.00325 0.0
          0.0377 -0.00325 0.0
          0.0364 -0.00325 0.0
          0.0351 -0.00325 0.0
          0.0338 -0.00325 0.0
          0.0325 -0.00325 0.0
          0.0312 -0.00325 0.0
          0.0299 -0.00325 0.0
          0.0286 -0.00325 0.0
          0.0273 -0.00325 0.0
          0.026 -0.00325 0.0
          0.0247 -0.00325 0.0
          0.0234 -0.00325 0.0
          0.0221 -0.00325 0.0
          0.0208 -0.00325 0.0
          0.0195 -0.00325 0.0
          0.0182 -0.00325 0.0
          0.0169 -0.00325 0.0
          0.0156 -0.00325 0.0
          0.0143 -0.00325 0.0
          0.013 -0.00325 0.0
          0.0117 -0.00325 0.0
          0.0104 -0.00325 0.0
          0.0091 -0.00325 0.0
          0.0078 -0.00325 0.0
          0.0065 -0.00325 0.0
          0.0052 -0.00325 0.0
          0.0039 -0.00325 0.0
          0.0026 -0.00325 0.0
          0.0013 -0.00325 0.0
          0 -0.00325 0.0
          0.039 -0.00455 0.0
          0.0377 -0.00455 0.0
          0.0364 -0.00455 0.0
          0.0351 -0.00455 0.0
          0.0338 -0.00455 0.0
          0.0325 -0.00455 0.0
          0.0312 -0.00455 0.0
          0.0299 -0.00455 0.0
          0.0286 -0.00455 0.0
          0.0273 -0.00455 0.0
          0.026 -0.00455 0.0
          0.0247 -0.00455 0.0
          0.0234 -0.00455 0.0
          0.0221 -0.00455 0.0
          0.0208 -0.00455 0.0
          0.0195 -0.00455 0.0
          0.0182 -0.00455 0.0
          0.0169 -0.00455 0.0
          0.0156 -0.00455 0.0
          0.0143 -0.00455 0.0
          0.013 -0.00455 0.0
          0.0117 -0.00455 0.0
          0.0104 -0.00455 0.0
          0.0091 -0.00455 0.0
          0.0078 -0.00455 0.0
          0.0065 -0.00455 0.0
          0.0052 -0.00455 0.0
          0.0039 -0.00455 0.0
          0.0026 -0.00455 0.0
          0.0013 -0.00455 0.0
          0 -0.00455 0.0
          0.039 -0.00585 0.0
          0.0377 -0.00585 0.0
          0.0364 -0.00585 0.0
          0.0351 -0.00585 0.0
          0.0338 -0.00585 0.0
          0.0325 -0.00585 0.0
          0.0312 -0.00585 0.0
          0.0299 -0.00585 0.0
          0.0286 -0.00585 0.0
          0.0273 -0.00585 0.0
          0.026 -0.00585 0.0
          0.0247 -0.00585 0.0
          0.0234 -0.00585 0.0
          0.0221 -0.00585 0.0
          0.0208 -0.00585 0.0
          0.0195 -0.00585 0.0
          0.0182 -0.00585 0.0
          0.0169 -0.00585 0.0
          0.0156 -0.00585 0.0
          0.0143 -0.00585 0.0
          0.013 -0.00585 0.0
          0.0117 -0.00585 0.0
          0.0104 -0.00585 0.0
          0.0091 -0.00585 0.0
          0.0078 -0.00585 0.0
          0.0065 -0.00585 0.0
          0.0052 -0.00585 0.0
          0.0039 -0.00585 0.0
          0.0026 -0.00585 0.0
          0.0013 -0.00585 0.0
          0 -0.00585 0.0
          0.039 -0.00715 0.0
          0.0377 -0.00715 0.0
          0.0364 -0.00715 0.0
          0.0351 -0.00715 0.0
          0.0338 -0.00715 0.0
          0.0325 -0.00715 0.0
          0.0312 -0.00715 0.0
          0.0299 -0.00715 0.0
          0.0286 -0.00715 0.0
          0.0273 -0.00715 0.0
          0.026 -0.00715 0.0
          0.0247 -0.00715 0.0
          0.0234 -0.00715 0.0
          0.0221 -0.00715 0.0
          0.0208 -0.00715 0.0
          0.0195 -0.00715 0.0
          0.0182 -0.00715 0.0
          0.0169 -0.00715 0.0
          0.0156 -0.00715 0.0
          0.0143 -0.00715 0.0
          0.013 -0.00715 0.0
          0.0117 -0.00715 0.0
          0.0104 -0.00715 0.0
          0.0091 -0.00715 0.0
          0.0078 -0.00715 0.0
          0.0065 -0.00715 0.0
          0.0052 -0.00715 0.0
          0.0039 -0.00715 0.0
          0.0026 -0.00715 0.0
          0.0013 -0.00715 0.0
          0 -0.00715 0.0
          0.039 -0.00845 0.0
          0.0377 -0.00845 0.0
          0.0364 -0.00845 0.0
          0.0351 -0.00845 0.0
          0.0338 -0.00845 0.0
          0.0325 -0.00845 0.0
          0.0312 -0.00845 0.0
          0.0299 -0.00845 0.0
          0.0286 -0.00845 0.0
          0.0273 -0.00845 0.0
          0.026 -0.00845 0.0
          0.0247 -0.00845 0.0
          0.0234 -0.00845 0.0
          0.0221 -0.00845 0.0
          0.0208 -0.00845 0.0
          0.0195 -0.00845 0.0
          0.0182 -0.00845 0.0
          0.0169 -0.00845 0.0
          0.0156 -0.00845 0.0
          0.0143 -0.00845 0.0
          0.013 -0.00845 0.0
          0.0117 -0.00845 0.0
          0.0104 -0.00845 0.0
          0.0091 -0.00845 0.0
          0.0078 -0.00845 0.0
          0.0065 -0.00845 0.0
          0.0052 -0.00845 0.0
          0.0039 -0.00845 0.0
          0.0026 -0.00845 0.0
          0.0013 -0.00845 0.0
          0 -0.00845 0.0
          0.039 -0.00975 0.0
          0.0377 -0.00975 0.0
          0.0364 -0.00975 0.0
          0.0351 -0.00975 0.0
          0.0338 -0.00975 0.0
          0.0325 -0.00975 0.0
          0.0312 -0.00975 0.0
          0.0299 -0.00975 0.0
          0.0286 -0.00975 0.0
          0.0273 -0.00975 0.0
          0.026 -0.00975 0.0
          0.0247 -0.00975 0.0
          0.0234 -0.00975 0.0
          0.0221 -0.00975 0.0
          0.0208 -0.00975 0.0
          0.0195 -0.00975 0.0
          0.0182 -0.00975 0.0
          0.0169 -0.00975 0.0
          0.0156 -0.00975 0.0
          0.0143 -0.00975 0.0
          0.013 -0.00975 0.0
          0.0117 -0.00975 0.0
          0.0104 -0.00975 0.0
          0.0091 -0.00975 0.0
          0.0078 -0.00975 0.0
          0.0065 -0.00975 0.0
          0.0052 -0.00975 0.0
          0.0039 -0.00975 0.0
          0.0026 -0.00975 0.0
          0.0013 -0.00975 0.0
          0 -0.00975 0.0
          0.039 -0.01105 0.0
          0.0377 -0.01105 0.0
          0.0364 -0.01105 0.0
          0.0351 -0.01105 0.0
          0.0338 -0.01105 0.0
          0.0325 -0.01105 0.0
          0.0312 -0.01105 0.0
          0.0299 -0.01105 0.0
          0.0286 -0.01105 0.0
          0.0273 -0.01105 0.0
          0.026 -0.01105 0.0
          0.0247 -0.01105 0.0
          0.0234 -0.01105 0.0
          0.0221 -0.01105 0.0
          0.0208 -0.01105 0.0
          0.0195 -0.01105 0.0
          0.0182 -0.01105 0.0
          0.0169 -0.01105 0.0
          0.0156 -0.01105 0.0
          0.0143 -0.01105 0.0
          0.013 -0.01105 0.0
          0.0117 -0.01105 0.0
          0.0104 -0.01105 0.0
          0.0091 -0.01105 0.0
          0.0078 -0.01105 0.0
          0.0065 -0.01105 0.0
          0.0052 -0.01105 0.0
          0.0039 -0.01105 0.0
          0.0026 -0.01105 0.0
          0.0013 -0.01105 0.0
          0 -0.01105 0.0
          0.039 -0.01235 0.0
          0.0377 -0.01235 0.0
          0.0364 -0.01235 0.0
          0.0351 -0.01235 0.0
          0.0338 -0.01235 0.0
          0.0325 -0.01235 0.0
          0.0312 -0.01235 0.0
          0.0299 -0.01235 0.0
          0.0286 -0.01235 0.0
          0.0273 -0.01235 0.0
          0.026 -0.01235 0.0
          0.0247 -0.01235 0.0
          0.0234 -0.01235 0.0
          0.0221 -0.01235 0.0
          0.0208 -0.01235 0.0
          0.0195 -0.01235 0.0
          0.0182 -0.01235 0.0
          0.0169 -0.01235 0.0
          0.0156 -0.01235 0.0
          0.0143 -0.01235 0.0
          0.013 -0.01235 0.0
          0.0117 -0.01235 0.0
          0.0104 -0.01235 0.0
          0.0091 -0.01235 0.0
          0.0078 -0.01235 0.0
          0.0065 -0.01235 0.0
          0.0052 -0.01235 0.0
          0.0039 -0.01235 0.0
          0.0026 -0.01235 0.0
          0.0013 -0.01235 0.0
          0 -0.01235 0.0
          0.039 -0.01365 0.0
          0.0377 -0.01365 0.0
          0.0364 -0.01365 0.0
          0.0351 -0.01365 0.0
          0.0338 -0.01365 0.0
          0.0325 -0.01365 0.0
          0.0312 -0.01365 0.0
          0.0299 -0.01365 0.0
          0.0286 -0.01365 0.0
          0.0273 -0.01365 0.0
          0.026 -0.01365 0.0
          0.0247 -0.01365 0.0
          0.0234 -0.01365 0.0
          0.0221 -0.01365 0.0
          0.0208 -0.01365 0.0
          0.0195 -0.01365 0.0
          0.0182 -0.01365 0.0
          0.0169 -0.01365 0.0
          0.0156 -0.01365 0.0
          0.0143 -0.01365 0.0
          0.013 -0.01365 0.0
          0.0117 -0.01365 0.0
          0.0104 -0.01365 0.0
          0.0091 -0.01365 0.0
          0.0078 -0.01365 0.0
          0.0065 -0.01365 0.0
          0.0052 -0.01365 0.0
          0.0039 -0.01365 0.0
          0.0026 -0.01365 0.0
          0.0013 -0.01365 0.0
          0 -0.01365 0.0
          0.039 -0.01495 0.0
          0.0377 -0.01495 0.0
          0.0364 -0.01495 0.0
          0.0351 -0.01495 0.0
          0.0338 -0.01495 0.0
          0.0325 -0.01495 0.0
          0.0312 -0.01495 0.0
          0.0299 -0.01495 0.0
          0.0286 -0.01495 0.0
          0.0273 -0.01495 0.0
          0.026 -0.01495 0.0
          0.0247 -0.01495 0.0
          0.0234 -0.01495 0.0