<?xml version="1.0"?>
<VTKFile type="UnstructuredGrid" version="0.1" byte_order="LittleEndian">
  <UnstructuredGrid>
    <Piece NumberOfPoints="961" NumberOfCells="900">
      <PointData Scalars="Temperature">
        <DataArray type="Float32" Name="Temperature" format="ascii">
          37.5545
          37.5545
          37.5545
          37.5545
          37.5545
          37.5545
          37.5545
          37.5545
          37.5545
          37.5545
          37.5545
          37.5545
          37.5545
          37.5545
          37.5545
          37.5545
          37.5545
          37.5545
          37.5545
          37.5545
          37.5545
          37.5545
          37.5545
          37.5545
          37.5545
          37.5545
          37.5545
          37.5545
          37.5545
          37.5545
          37.5545
          37.5545
          37.5545
          37.5545
          37.5545
          37.5545
          37.5545
          37.5545
          37.5545
          37.5545
          37.5545
          37.5545
          37.5545
          37.5545
          37.5545
          37.5545
          37.5545
          37.5545
          37.5545
          37.5545
          37.5545
          37.5545
          37.5545
          37.5545
          37.5545
          37.5545
          37.5545
          37.5545
          37.5545
          37.5545
          37.5545
          37.5545
          37.5545
          37.5545
          37.5545
          37.5545
          37.5545
          37.5545
          37.5545
          37.5545
          37.5545
          37.5545
          37.5545
          37.5545
          37.5545
          37.5545
          37.5545
          37.5545
          37.5545
          37.5545
          37.5545
          37.5545
          37.5545
          37.5545
          37.5545
          37.5545
          37.5545
          37.5545
          37.5545
          37.5545
          37.5545
          37.5545
          37.5545
          37.5545
          37.5545
          37.5545
          37.5545
          53.2244
          53.2258
          53.2261
          53.2254
          37.5545
          37.5545
          53.5071
          53.5079
          53.5079
          53.5071
          37.5545
          37.5545
          53.5431
          53.5439
          53.5439
          53.5431
          37.5545
          37.5545
          53.296
          53.2967
          53.2964
          53.2951
          37.5545
          37.5545
          37.5545
          37.5545
          37.5545
          37.5545
          37.5545
          37.5545
          37.5545
          53.2266
          53.2271
          53.2274
          53.2274
          37.5545
          37.5545
          53.5089
          53.5091
          53.5091
          53.5089
          37.5545
          37.5545
          53.5449
          53.5451
          53.5451
          53.5449
          37.5545
          37.5545
          53.2979
          53.298
          53.2977
          53.2973
          37.5545
          37.5545
          37.5545
          37.5545
          37.5545
          37.5545
          37.5545
          37.5545
          37.5545
          53.2291
          53.2296
          53.2298
          53.2298
          37.5545
          37.5545
          53.5111
          53.5112
          53.5112
          53.5111
          37.5545
          37.5545
          53.5471
          53.5472
          53.5472
          53.5471
          37.5545
          37.5545
          53.3003
          53.3003
          53.3001
          53.2997
          37.5545
          37.5545
          37.5545
          37.5545
          37.5545
          37.5545
          37.5545
          37.5545
          37.5545
          53.2324
          53.2328
          53.2331
          53.2331
          37.5545
          37.5545
          53.514
          53.514
          53.514
          53.514
          37.5545
          37.5545
          53.55
          53.55
          53.55
          53.55
          37.5545
          37.5545
          53.3035
          53.3035
          53.3033
          53.3029
          37.5545
          37.5545
          37.5545
          37.5545
          37.5545
          37.5545
          37.5545
          37.5545
          37.5545
          53.2364
          53.2369
          53.2371
          53.2371
          37.5545
          37.5545
          53.5174
          53.5175
          53.5175
          53.5175
          37.5545
          37.5545
          53.5535
          53.5535
          53.5535
          53.5534
          37.5545
          37.5545
          53.3074
          53.3074
          53.3073
          53.3069
          37.5545
          37.5545
          37.5545
          37.5545
          37.5545
          37.5545
          37.5545
          37.5545
          37.5545
          53.2413
          53.2417
          53.2419
          53.2419
          37.5545
          37.5545
          53.5216
          53.5216
          53.5216
          53.5216
          37.5545
          37.5545
          53.5576
          53.5576
          53.5576
          53.5576
          37.5545
          37.5545
          53.3122
          53.3121
          53.312
          53.3116
          37.5545
          37.5545
          37.5545
          37.5545
          37.5545
          37.5545
          37.5545
          37.5545
          37.5545
          53.2469
          53.2473
          53.2475
          53.2475
          37.5545
          37.5545
          53.5263
          53.5264
          53.5264
          53.5263
          37.5545
          37.5545
          53.5623
          53.5624
          53.5624
          53.5623
          37.5545
          37.5545
          53.3176
          53.3176
          53.3174
          53.3171
          37.5545
          37.5545
          37.5545
          37.5545
          37.5545
          37.5545
          37.5545
          37.5545
          37.5545
          53.2532
          53.2537
          53.2539
          53.2539
          37.5545
          37.5545
          53.5317
          53.5317
          53.5317
          53.5317
          37.5545
          37.5545
          53.5677
          53.5678
          53.5677
          53.5677
          37.5545
          37.5545
          53.3238
          53.3238
          53.3236
          53.3233
          37.5545
          37.5545
          37.5545
          37.5545
          37.5545
          37.5545
          37.5545
          37.5545
          37.5545
          53.2604
          53.2608
          53.261
          53.2611
          37.5545
          37.5545
          53.5377
          53.5378
          53.5378
          53.5377
          37.5545
          37.5545
          53.5737
          53.5738
          53.5738
          53.5737
          37.5545
          37.5545
          53.3308
          53.3307
          53.3306
          53.3302
          37.5545
          37.5545
          37.5545
          37.5545
          37.5545
          37.5545
          37.5545
          37.5545
          37.5545
          53.2683
          53.2687
          53.269
          53.269
          37.5545
          37.5545
          53.5443
          53.5444
          53.5444
          53.5444
          37.5545
          37.5545
          53.5804
          53.5804
          53.5804
          53.5804
          37.5545
          37.5545
          53.3385
          53.3384
          53.3383
          53.3379
          37.5545
          37.5545
          37.5545
          37.5545
          37.5545
          37.5545
          37.5545
          37.5545
          37.5545
          53.277
          53.2775
          53.2777
          53.2777
          37.5545
          37.5545
          53.5516
          53.5517
          53.5517
          53.5516
          37.5545
          37.5545
          53.5877
          53.5877
          53.5877
          53.5877
          37.5545
          37.5545
          53.3469
          53.3469
          53.3467
          53.3464
          37.5545
          37.5545
          37.5545
          37.5545
          37.5545
          37.5545
          37.5545
          37.5545
          37.5545
          53.2865
          53.2869
          53.2872
          53.2872
          37.5545
          37.5545
          53.5596
          53.5596
          53.5596
          53.5596
          37.5545
          37.5545
          53.5956
          53.5957
          53.5956
          53.5956
          37.5545
          37.5545
          53.3561
          53.3561
          53.3559
          53.3556
          37.5545
          37.5545
          37.5545
          37.5545
          37.5545
          37.5545
          37.5545
          37.5545
          37.5545
          53.2968
          53.2972
          53.2974
          53.2974
          37.5545
          37.5545
          53.5681
          53.5682
          53.5682
          53.5681
          37.5545
          37.5545
          53.6042
          53.6042
          53.6042
          53.6042
          37.5545
          37.5545
          53.366
          53.366
          53.3659
          53.3655
          37.5545
          37.5545
          37.5545
          37.5545
          37.5545
          37.5545
          37.5545
          37.5545
          37.5545
          53.3078
          53.3082
          53.3085
          53.3085
          37.5545
          37.5545
          53.5773
          53.5774
          53.5774
          53.5773
          37.5545
          37.5545
          53.6134
          53.6134
          53.6134
          53.6134
          37.5545
          37.5545
          53.3767
          53.3767
          53.3766
          53.3762
          37.5545
          37.5545
          37.5545
          37.5545
          37.5545
          37.5545
          37.5545
          37.5545
          37.5545
          53.3196
          53.32
          53.3203
          53.3203
          37.5545
          37.5545
          53.5871
          53.5872
          53.5872
          53.5871
          37.5545
          37.5545
          53.6232
          53.6233
          53.6232
          53.6232
          37.5545
          37.5545
          53.3882
          53.3882
          53.388
          53.3876
          37.5545
          37.5545
          37.5545
          37.5545
          37.5545
          37.5545
          37.5545
          37.5545
          37.5545
          53.3322
          53.3326
          53.3329
          53.3329
          37.5545
          37.5545
          53.5976
          53.5977
          53.5977
          53.5976
          37.5545
          37.5545
          53.6337
          53.6337
          53.6337
          53.6337
          37.5545
          37.5545
          53.4004
          53.4004
          53.4002
          53.3998
          37.5545
          37.5545
          37.5545
          37.5545
          37.5545
          37.5545
          37.5545
          37.5545
          37.5545
          53.3456
          53.346
          53.3462
          53.3463
          37.5545
          37.5545
          53.6087
          53.6088
          53.6088
          53.6087
          37.5545
          37.5545
          53.6448
          53.6448
          53.6448
          53.6448
          37.5545
          37.5545
          53.4133
          53.4133
          53.4131
          53.4128
          37.5545
          37.5545
          37.5545
          37.5545
          37.5545
          37.5545
          37.5545
          37.5545
          37.5545
          53.3597
          53.3601
          53.3604
          53.3604
          37.5545
          37.5545
          53.6204
          53.6205
          53.6205
          53.6205
          37.5545
          37.5545
          53.6565
          53.6566
          53.6566
          53.6565
          37.5545
          37.5545
          53.427
          53.427
          53.4268
          53.4265
          37.5545
          37.5545
          37.5545
          37.5545
          37.5545
          37.5545
          37.5545
          37.5545
          37.5545
          53.3746
          53.3751
          53.3753
          53.3753
          37.5545
          37.5545
          53.6328
          53.6328
          53.6329
          53.6328
          37.5545
          37.5545
          53.6689
          53.669
          53.6689
          53.6689
          37.5545
          37.5545
          53.4415
          53.4414
          53.4412
          53.4409
          37.5545
          37.5545
          37.5545
          37.5545
          37.5545
          37.5545
          37.5545
          37.5545
          37.5545
          53.3903
          53.3907
          53.391
          53.3911
          37.5545
          37.5545
          53.6457
          53.6458
          53.6459
          53.6459
          37.5545
          37.5545
          53.682
          53.682
          53.6819
          53.6818
          37.5545
          37.5545
          53.4567
          53.4567
          53.4564
          53.456
          37.5545
          37.5545
          37.5545
          37.5545
          37.5545
          37.5545
          37.5545
          37.5545
          37.5545
          53.4066
          53.4071
          53.4076
          53.4077
          37.5545
          37.5545
          53.6592
          53.6594
          53.6596
          53.6597
          37.5545
          37.5545
          53.6957
          53.6957
          53.6955
          53.6954
          37.5545
          37.5545
          53.4728
          53.4727
          53.4722
          53.4718
          37.5545
          37.5545
          37.5545
          37.5545
          37.5545
          37.5545
          37.5545
          37.5545
          37.5545
          53.4232
          53.424
          53.4251
          53.4256
          37.5545
          37.5545
          53.6728
          53.6733
          53.6742
          53.6746
          37.5545
          37.5545
          53.7104
          53.7102
          53.7096
          53.7093
          37.5545
          37.5545
          53.4901
          53.4896
          53.4886
          53.4878
          37.5545
          37.5545
          37.5545
          37.5545
          37.5545
          37.5545
          37.5545
          37.5545
          37.5545
          53.4392
          53.4411
          53.444
          53.4456
          37.5545
          37.5545
          53.6858
          53.6873
          53.69
          53.6914
          37.5545
          37.5545
          53.7266
          53.7257
          53.7239
          53.7229
          37.5545
          37.5545
          53.5095
          53.5079
          53.505
          53.5032
          37.5545
          37.5545
          37.5545
          37.5545
          37.5545
          37.5545
          37.5545
          37.5545
          37.5545
          53.4521
          53.456
          53.4664
          53.4701
          37.5545
          37.5545
          53.6958
          53.6993
          53.7091
          53.7126
          37.5545
          37.5545
          53.7459
          53.7436
          53.7371
          53.7347
          37.5545
          37.5545
          53.5334
          53.5297
          53.5193
          53.5154
          37.5545
          37.5545
          37.5545
          37.5545
          37.5545
          53.3195
          53.3632
          53.3942
          53.4223
          53.4512
          53.4678
          53.488
          53.5205
          53.5889
          53.6391
          53.688
          53.7105
          53.7299
          53.753
          53.7886
          53.7959
          53.7777
          53.7631
          53.7503
          53.7344
          53.6955
          53.6494
          53.583
          53.5508
          53.5305
          53.5136
          53.484
          53.4562
          53.4279
          53.3968
          53.3531
          53.3372
          53.3674
          53.3958
          53.4231
          53.4492
          53.4756
          53.5051
          53.5443
          53.591
          53.6416
          53.6864
          53.724
          53.7536
          53.779
          53.7974
          53.8046
          53.7994
          53.7859
          53.7668
          53.7384
          53.7
          53.6527
          53.6068
          53.5677
          53.5379
          53.5111
          53.4844
          53.4569
          53.4295
          53.4011
          53.3709
          53.357
          53.3755
          53.3984
          53.4241
          53.4512
          53.4804
          53.5136
          53.5524
          53.5969
          53.6457
          53.6984
          53.7459
          53.7812
          53.8067
          53.8232
          53.8299
          53.8265
          53.8137
          53.7915
          53.7585
          53.712
          53.661
          53.6155
          53.5762
          53.5425
          53.5127
          53.4847
          53.4578
          53.4322
          53.4092
          53.3907
          53.3715
          53.3789
          53.3997
          53.4247
          53.452
          53.4821
          53.516
          53.5549
          53.5989
          53.6482
          53.7061
          53.7597
          53.7967
          53.8227
          53.8389
          53.8455
          53.8424
          53.8295
          53.8066
          53.7718
          53.72
          53.6642
          53.6183
          53.5786
          53.5441
          53.5134
          53.4851
          53.4583
          53.4335
          53.4126
          53.4052
        </DataArray>
      </PointData>
      <CellData>
      </CellData>
      <Points>
        <DataArray type="Float32" NumberOfComponents="3" format="ascii">
          0.039 0.00195 0.0
          0.0377 0.00195 0.0
          0.0364 0.00195 0.0
          0.0351 0.00195 0.0
          0.0338 0.00195 0.0
          0.0325 0.00195 0.0
          0.0312 0.00195 0.0
          0.0299 0.00195 0.0
          0.0286 0.00195 0.0
          0.0273 0.00195 0.0
          0.026 0.00195 0.0
          0.0247 0.00195 0.0
          0.0234 0.00195 0.0
          0.0221 0.00195 0.0
          0.0208 0.00195 0.0
          0.0195 0.00195 0.0
          0.0182 0.00195 0.0
          0.0169 0.00195 0.0
          0.0156 0.00195 0.0
          0.0143 0.00195 0.0
          0.013 0.00195 0.0
          0.0117 0.00195 0.0
          0.0104 0.00195 0.0
          0.0091 0.00195 0.0
          0.0078 0.00195 0.0
          0.0065 0.00195 0.0
          0.0052 0.00195 0.0
          0.0039 0.00195 0.0
          0.0026 0.00195 0.0
          0.0013 0.00195 0.0
          0 0.00195 0.0
          0.039 0.00065 0.0
          0.0377 0.00065 0.0
          0.0364 0.00065 0.0
          0.0351 0.00065 0.0
          0.0338 0.00065 0.0
          0.0325 0.00065 0.0
          0.0312 0.00065 0.0
          0.0299 0.00065 0.0
          0.0286 0.00065 0.0
          0.0273 0.00065 0.0
          0.026 0.00065 0.0
          0.0247 0.00065 0.0
          0.0234 0.00065 0.0
          0.0221 0.00065 0.0
          0.0208 0.00065 0.0
          0.0195 0.00065 0.0
          0.0182 0.00065 0.0
          0.0169 0.00065 0.0
          0.0156 0.00065 0.0
          0.0143 0.00065 0.0
          0.013 0.00065 0.0
          0.0117 0.00065 0.0
          0.0104 0.00065 0.0
          0.0091 0.00065 0.0
          0.0078 0.00065 0.0
          0.0065 0.00065 0.0
          0.0052 0.00065 0.0
          0.0039 0.00065 0.0
          0.0026 0.00065 0.0
          0.0013 0.00065 0.0
          0 0.00065 0.0
          0.039 -0.00065 0.0
          0.0377 -0.00065 0.0
          0.0364 -0.00065 0.0
          0.0351 -0.00065 0.0
          0.0338 -0.00065 0.0
          0.0325 -0.00065 0.0
          0.0312 -0.00065 0.0
          0.0299 -0.00065 0.0
          0.0286 -0.00065 0.0
          0.0273 -0.00065 0.0
          0.026 -0.00065 0.0
          0.0247 -0.00065 0.0
          0.0234 -0.00065 0.0
          0.0221 -0.00065 0.0
          0.0208 -0.00065 0.0
          0.0195 -0.00065 0.0
          0.0182 -0.00065 0.0
          0.0169 -0.00065 0.0
          0.0156 -0.00065 0.0
          0.0143 -0.00065 0.0
          0.013 -0.00065 0.0
          0.0117 -0.00065 0.0
          0.0104 -0.00065 0.0
          0.0091 -0.00065 0.0
          0.0078 -0.00065 0.0
          0.0065 -0.00065 0.0
          0.0052 -0.00065 0.0
          0.0039 -0.00065 0.0
          0.0026 -0.00065 0.0
          0.0013 -0.00065 0.0
          0 -0.00065 0.0
          0.039 -0.00195 0.0
          0.0377 -0.00195 0.0
          0.0364 -0.00195 0.0
          0.0351 -0.00195 0.0
          0.0338 -0.00195 0.0
          0.0325 -0.00195 0.0
          0.0312 -0.00195 0.0
          0.0299 -0.00195 0.0
          0.0286 -0.00195 0.0
          0.0273 -0.00195 0.0
          0.026 -0.00195 0.0
          0.0247 -0.00195 0.0
          0.0234 -0.00195 0.0
          0.0221 -0.00195 0.0
          0.0208 -0.00195 0.0
          0.0195 -0.00195 0.0
          0.0182 -0.00195 0.0
          0.0169 -0.00195 0.0
          0.0156 -0.00195 0.0
          0.0143 -0.00195 0.0
          0.013 -0.00195 0.0
          0.0117 -0.00195 0.0
          0.0104 -0.00195 0.0
          0.0091 -0.00195 0.0
          0.0078 -0.00195 0.0
          0.0065 -0.00195 0.0
          0.0052 -0.00195 0.0
          0.0039 -0.00195 0.0
          0.0026 -0.00195 0.0
          0.0013 -0.00195 0.0
          0 -0.00195 0.0
          0.039 -0.00325 0.0
          0.0377 -0.00325 0.0
          0.0364 -0.00325 0.0
          0.0351 -0.00325 0.0
          0.0338 -0.00325 0.0
          0.0325 -0.00325 0.0
          0.0312 -0.00325 0.0
          0.0299 -0.00325 0.0
          0.0286 -0.00325 0.0
          0.0273 -0.00325 0.0
          0.026 -0.00325 0.0
          0.0247 -0.00325 0.0
          0.0234 -0.00325 0.0
          0.0221 -0.00325 0.0
          0.0208 -0.00325 0.0
          0.0195 -0.00325 0.0
          0.0182 -0.00325 0.0
          0.0169 -0.00325 0.0
          0.0156 -0.00325 0.0
          0.0143 -0.00325 0.0
          0.013 -0.00325 0.0
          0.0117 -0.00325 0.0
          0.0104 -0.00325 0.0
          0.0091 -0.00325 0.0
          0.0078 -0.00325 0.0
          0.0065 -0.00325 0.0
          0.0052 -0.00325 0.0
          0.0039 -0.00325 0.0
          0.0026 -0.00325 0.0
          0.0013 -0.00325 0.0
          0 -0.00325 0.0
          0.039 -0.00455 0.0
          0.0377 -0.00455 0.0
          0.0364 -0.00455 0.0
          0.0351 -0.00455 0.0
          0.0338 -0.00455 0.0
          0.0325 -0.00455 0.0
          0.0312 -0.00455 0.0
          0.0299 -0.00455 0.0
          0.0286 -0.00455 0.0
          0.0273 -0.00455 0.0
          0.026 -0.00455 0.0
          0.0247 -0.00455 0.0
          0.0234 -0.00455 0.0
          0.0221 -0.00455 0.0
          0.0208 -0.00455 0.0
          0.0195 -0.00455 0.0
          0.0182 -0.00455 0.0
          0.0169 -0.00455 0.0
          0.0156 -0.00455 0.0
          0.0143 -0.00455 0.0
          0.013 -0.00455 0.0
          0.0117 -0.00455 0.0
          0.0104 -0.00455 0.0
          0.0091 -0.00455 0.0
          0.0078 -0.00455 0.0
          0.0065 -0.00455 0.0
          0.0052 -0.00455 0.0
          0.0039 -0.00455 0.0
          0.0026 -0.00455 0.0
          0.0013 -0.00455 0.0
          0 -0.00455 0.0
          0.039 -0.00585 0.0
          0.0377 -0.00585 0.0
          0.0364 -0.00585 0.0
          0.0351 -0.00585 0.0
          0.0338 -0.00585 0.0
          0.0325 -0.00585 0.0
          0.0312 -0.00585 0.0
          0.0299 -0.00585 0.0
          0.0286 -0.00585 0.0
          0.0273 -0.00585 0.0
          0.026 -0.00585 0.0
          0.0247 -0.00585 0.0
          0.0234 -0.00585 0.0
          0.0221 -0.00585 0.0
          0.0208 -0.00585 0.0
          0.0195 -0.00585 0.0
          0.0182 -0.00585 0.0
          0.0169 -0.00585 0.0
          0.0156 -0.00585 0.0
          0.0143 -0.00585 0.0
          0.013 -0.00585 0.0
          0.0117 -0.00585 0.0
          0.0104 -0.00585 0.0
          0.0091 -0.00585 0.0
          0.0078 -0.00585 0.0
          0.0065 -0.00585 0.0
          0.0052 -0.00585 0.0
          0.0039 -0.00585 0.0
          0.0026 -0.00585 0.0
          0.0013 -0.00585 0.0
          0 -0.00585 0.0
          0.039 -0.00715 0.0
          0.0377 -0.00715 0.0
          0.0364 -0.00715 0.0
          0.0351 -0.00715 0.0
          0.0338 -0.00715 0.0
          0.0325 -0.00715 0.0
          0.0312 -0.00715 0.0
          0.0299 -0.00715 0.0
          0.0286 -0.00715 0.0
          0.0273 -0.00715 0.0
          0.026 -0.00715 0.0
          0.0247 -0.00715 0.0
          0.0234 -0.00715 0.0
          0.0221 -0.00715 0.0
          0.0208 -0.00715 0.0
          0.0195 -0.00715 0.0
          0.0182 -0.00715 0.0
          0.0169 -0.00715 0.0
          0.0156 -0.00715 0.0
          0.0143 -0.00715 0.0
          0.013 -0.00715 0.0
          0.0117 -0.00715 0.0
          0.0104 -0.00715 0.0
          0.0091 -0.00715 0.0
          0.0078 -0.00715 0.0
          0.0065 -0.00715 0.0
          0.0052 -0.00715 0.0
          0.0039 -0.00715 0.0
          0.0026 -0.00715 0.0
          0.0013 -0.00715 0.0
          0 -0.00715 0.0
          0.039 -0.00845 0.0
          0.0377 -0.00845 0.0
          0.0364 -0.00845 0.0
          0.0351 -0.00845 0.0
          0.0338 -0.00845 0.0
          0.0325 -0.00845 0.0
          0.0312 -0.00845 0.0
          0.0299 -0.00845 0.0
          0.0286 -0.00845 0.0
          0.0273 -0.00845 0.0
          0.026 -0.00845 0.0
          0.0247 -0.00845 0.0
          0.0234 -0.00845 0.0
          0.0221 -0.00845 0.0
          0.0208 -0.00845 0.0
          0.0195 -0.00845 0.0
          0.0182 -0.00845 0.0
          0.0169 -0.00845 0.0
          0.0156 -0.00845 0.0
          0.0143 -0.00845 0.0
          0.013 -0.00845 0.0
          0.0117 -0.00845 0.0
          0.0104 -0.00845 0.0
          0.0091 -0.00845 0.0
          0.0078 -0.00845 0.0
          0.0065 -0.00845 0.0
          0.0052 -0.00845 0.0
          0.0039 -0.00845 0.0
          0.0026 -0.00845 0.0
          0.0013 -0.00845 0.0
          0 -0.00845 0.0
          0.039 -0.00975 0.0
          0.0377 -0.00975 0.0
          0.0364 -0.00975 0.0
          0.0351 -0.00975 0.0
          0.0338 -0.00975 0.0
          0.0325 -0.00975 0.0
          0.0312 -0.00975 0.0
          0.0299 -0.00975 0.0
          0.0286 -0.00975 0.0
          0.0273 -0.00975 0.0
          0.026 -0.00975 0.0
          0.0247 -0.00975 0.0
          0.0234 -0.00975 0.0
          0.0221 -0.00975 0.0
          0.0208 -0.00975 0.0
          0.0195 -0.00975 0.0
          0.0182 -0.00975 0.0
          0.0169 -0.00975 0.0
          0.0156 -0.00975 0.0
          0.0143 -0.00975 0.0
          0.013 -0.00975 0.0
          0.0117 -0.00975 0.0
          0.0104 -0.00975 0.0
          0.0091 -0.00975 0.0
          0.0078 -0.00975 0.0
          0.0065 -0.00975 0.0
          0.0052 -0.00975 0.0
          0.0039 -0.00975 0.0
          0.0026 -0.00975 0.0
          0.0013 -0.00975 0.0
          0 -0.00975 0.0
          0.039 -0.01105 0.0
          0.0377 -0.01105 0.0
          0.0364 -0.01105 0.0
          0.0351 -0.01105 0.0
          0.0338 -0.01105 0.0
          0.0325 -0.01105 0.0
          0.0312 -0.01105 0.0
          0.0299 -0.01105 0.0
          0.0286 -0.01105 0.0
          0.0273 -0.01105 0.0
          0.026 -0.01105 0.0
          0.0247 -0.01105 0.0
          0.0234 -0.01105 0.0
          0.0221 -0.01105 0.0
          0.0208 -0.01105 0.0
          0.0195 -0.01105 0.0
          0.0182 -0.01105 0.0
          0.0169 -0.01105 0.0
          0.0156 -0.01105 0.0
          0.0143 -0.01105 0.0
          0.013 -0.01105 0.0
          0.0117 -0.01105 0.0
          0.0104 -0.01105 0.0
          0.0091 -0.01105 0.0
          0.0078 -0.01105 0.0
          0.0065 -0.01105 0.0
          0.0052 -0.01105 0.0
          0.0039 -0.01105 0.0
          0.0026 -0.01105 0.0
          0.0013 -0.01105 0.0
          0 -0.01105 0.0
          0.039 -0.01235 0.0
          0.0377 -0.01235 0.0
          0.0364 -0.01235 0.0
          0.0351 -0.01235 0.0
          0.0338 -0.01235 0.0
          0.0325 -0.01235 0.0
          0.0312 -0.01235 0.0
          0.0299 -0.01235 0.0
          0.0286 -0.01235 0.0
          0.0273 -0.01235 0.0
          0.026 -0.01235 0.0
          0.0247 -0.01235 0.0
          0.0234 -0.01235 0.0
          0.0221 -0.01235 0.0
          0.0208 -0.01235 0.0
          0.0195 -0.01235 0.0
          0.0182 -0.01235 0.0
          0.0169 -0.01235 0.0
          0.0156 -0.01235 0.0
          0.0143 -0.01235 0.0
          0.013 -0.01235 0.0
          0.0117 -0.01235 0.0
          0.0104 -0.01235 0.0
          0.0091 -0.01235 0.0
          0.0078 -0.01235 0.0
          0.0065 -0.01235 0.0
          0.0052 -0.01235 0.0
          0.0039 -0.01235 0.0
          0.0026 -0.01235 0.0
          0.0013 -0.01235 0.0
          0 -0.01235 0.0
          0.039 -0.01365 0.0
          0.0377 -0.01365 0.0
          0.0364 -0.01365 0.0
          0.0351 -0.01365 0.0
          0.0338 -0.01365 0.0
          0.0325 -0.01365 0.0
          0.0312 -0.01365 0.0
          0.0299 -0.01365 0.0
          0.0286 -0.01365 0.0
          0.0273 -0.01365 0.0
          0.026 -0.01365 0.0
          0.0247 -0.01365 0.0
          0.0234 -0.01365 0.0
          0.0221 -0.01365 0.0
          0.0208 -0.01365 0.0
          0.0195 -0.01365 0.0
          0.0182 -0.01365 0.0
          0.0169 -0.01365 0.0
          0.0156 -0.01365 0.0
          0.0143 -0.01365 0.0
          0.013 -0.01365 0.0
          0.0117 -0.01365 0.0
          0.0104 -0.01365 0.0
          0.0091 -0.01365 0.0
          0.0078 -0.01365 0.0
          0.0065 -0.01365 0.0
          0.0052 -0.01365 0.0
          0.0039 -0.01365 0.0
          0.0026 -0.01365 0.0
          0.0013 -0.01365 0.0
          0 -0.01365 0.0
          0.039 -0.01495 0.0
          0.0377 -0.01495 0.0
          0.0364 -0.01495 0.0
          0.0351 -0.01495 0.0
          0.0338 -0.01495 0.0
          0.0325 -0.01495 0.0
          0.0312 -0.01495 0.0
          0.0299 -0.01495 0.0
          0.0286 -0.01495 0.0
          0.0273 -0.01495 0.0
          0.026 -0.01495 0.0
          0.0247 -0.01495 0.0
          0.0234 -0.01495 0.0