<?xml version="1.0"?>
<VTKFile type="UnstructuredGrid" version="0.1" byte_order="LittleEndian">
  <UnstructuredGrid>
    <Piece NumberOfPoints="16" NumberOfCells="9">
      <PointData Scalars="Temperature">
        <DataArray type="Float32" Name="Temperature" format="ascii">
          781.21
          650.587
          690.016
          780.668
          650.587
          504.891
          537.614
          690.016
          690.016
          537.614
          504.891
          650.587
          780.668
          690.016
          650.587
          781.21
        </DataArray>
      </PointData>
      <CellData>
      </CellData>
      <Points>
        <DataArray type="Float32" NumberOfComponents="3" format="ascii">
          0.1 0.005 0.0
          0.0546918 0.005 0.0
          0.0226541 0.005 0.0
          0 0.005 0.0
          0.1 -0.0403082 0.0
          0.0623899 -0.0326101 0.0
          0.0303522 -0.0253522 0.0
          0 -0.0176541 0.0
          0.1 -0.0723459 0.0
          0.0696478 -0.0646478 0.0
          0.0376101 -0.0573899 0.0
          0 -0.0496918 0.0
          0.1 -0.095 0.0
          0.0773459 -0.095 0.0
          0.0453082 -0.095 0.0
          0 -0.095 0.0
        </DataArray>
      </Points>
      <Cells>
        <DataArray type="Int32" Name="connectivity" format="ascii">
          0 1 5 4 
          1 2 6 5 
          2 3 7 6 
          4 5 9 8 
          5 6 10 9 
          6 7 11 10 
          8 9 13 12 
          9 10 14 13 
          10 11 15 14 
        </DataArray>
        <DataArray type="Int32" Name="offsets" format="ascii">
          4
          8
          12
          16
          20
          24
          28
          32
          36
        </DataArray>
        <DataArray type="UInt8" Name="types" format="ascii">
          9
          9
          9
          9
          9
          9
          9
          9
          9
        </DataArray>
      </Cells>
    </Piece>
  </UnstructuredGrid>
</VTKFile>
