<?xml version="1.0"?>
<VTKFile type="UnstructuredGrid" version="0.1" byte_order="LittleEndian">
  <UnstructuredGrid>
    <Piece NumberOfPoints="961" NumberOfCells="900">
      <PointData Scalars="Temperature">
        <DataArray type="Float32" Name="Temperature" format="ascii">
          21.0007
          21.0125
          21.0247
          21.0368
          21.047
          21.0538
          21.0567
          21.057
          21.0568
          21.0577
          21.0596
          21.0613
          21.0615
          21.0605
          21.0594
          21.0596
          21.0609
          21.0621
          21.062
          21.0604
          21.0586
          21.0578
          21.0581
          21.058
          21.0554
          21.0492
          21.0399
          21.0291
          21.0187
          21.0092
          21.0006
          21.0121
          21.2011
          21.4039
          21.6075
          21.784
          21.8952
          21.9375
          21.9332
          21.9251
          21.9403
          21.9774
          22.0096
          22.0134
          21.9905
          21.9679
          21.9706
          21.9979
          22.0238
          22.0216
          21.9903
          21.9545
          21.9412
          21.9516
          21.9585
          21.9208
          21.8183
          21.6569
          21.4753
          21.3015
          21.1494
          21.009
          21.0225
          21.375
          21.7587
          22.2177
          22.5908
          22.8284
          22.8695
          22.8122
          22.757
          22.7926
          22.9026
          23.002
          23.0057
          22.9221
          22.8399
          22.8465
          22.9384
          23.0278
          23.0257
          22.9271
          22.8191
          22.7878
          22.8479
          22.9097
          22.8729
          22.6504
          22.3061
          21.8911
          21.5622
          21.2785
          21.0168
          21.0312
          21.5189
          22.0544
          22.6965
          23.8539
          23.8541
          23.8541
          23.854
          23.3792
          23.4306
          24.0401
          24.0401
          24.0401
          24.0401
          23.4916
          23.5014
          24.0758
          24.0759
          24.0759
          24.0758
          23.4661
          23.4211
          23.9127
          23.9127
          23.9127
          23.9126
          22.8144
          22.238
          21.7803
          21.3876
          21.0234
          21.0375
          21.6224
          22.2525
          23.0007
          23.8547
          23.8547
          23.8548
          23.8548
          23.7432
          23.8052
          24.0408
          24.0408
          24.0408
          24.0408
          23.8731
          23.885
          24.0765
          24.0765
          24.0765
          24.0765
          23.8459
          23.7915
          23.9134
          23.9134
          23.9133
          23.9133
          23.1392
          22.4764
          21.9425
          21.4711
          21.0285
          21.0415
          21.6855
          22.3618
          23.0884
          23.8565
          23.8566
          23.8566
          23.8566
          23.8606
          23.9226
          24.0426
          24.0426
          24.0426
          24.0426
          23.9946
          24.0066
          24.0784
          24.0784
          24.0784
          24.0784
          23.9652
          23.9108
          23.9152
          23.9152
          23.9152
          23.9152
          23.2423
          22.6156
          22.0486
          21.5287
          21.032
          21.0437
          21.7188
          22.4102
          23.1253
          23.8596
          23.8596
          23.8596
          23.8596
          23.8999
          23.9619
          24.0456
          24.0456
          24.0456
          24.0456
          24.0352
          24.0471
          24.0814
          24.0814
          24.0814
          24.0814
          24.005
          23.9506
          23.9183
          23.9182
          23.9182
          23.9182
          23.2902
          22.6852
          22.1113
          21.5649
          21.0343
          21.0448
          21.7348
          22.433
          23.1431
          23.8637
          23.8638
          23.8638
          23.8638
          23.9154
          23.9774
          24.0498
          24.0498
          24.0498
          24.0498
          24.0511
          24.063
          24.0855
          24.0855
          24.0855
          24.0855
          24.0207
          23.9663
          23.9224
          23.9224
          23.9224
          23.9224
          23.3157
          22.7223
          22.1463
          21.5863
          21.0357
          21.0453
          21.7429
          22.4448
          23.1536
          23.8691
          23.8691
          23.8691
          23.8692
          23.9243
          23.9863
          24.0551
          24.0551
          24.0551
          24.0551
          24.0601
          24.072
          24.0909
          24.0909
          24.0909
          24.0908
          24.0296
          23.9753
          23.9278
          23.9278
          23.9277
          23.9277
          23.3312
          22.7434
          22.1663
          21.5985
          21.0365
          21.0456
          21.7476
          22.4522
          23.1613
          23.8756
          23.8756
          23.8756
          23.8756
          23.9319
          23.9938
          24.0615
          24.0615
          24.0615
          24.0615
          24.0677
          24.0796
          24.0973
          24.0973
          24.0973
          24.0973
          24.0372
          23.9829
          23.9343
          23.9343
          23.9342
          23.9342
          23.3422
          22.7567
          22.1783
          21.6059
          21.037
          21.0458
          21.7509
          22.4579
          23.1683
          23.8832
          23.8833
          23.8833
          23.8833
          23.9399
          24.0018
          24.0691
          24.0691
          24.0692
          24.0692
          24.0757
          24.0876
          24.1049
          24.1049
          24.1049
          24.1049
          24.0452
          23.9909
          23.9419
          23.9419
          23.9419
          23.9419
          23.3514
          22.7663
          22.1864
          21.6106
          21.0373
          21.046
          21.7538
          22.4631
          23.1755
          23.892
          23.8921
          23.8921
          23.8921
          23.9488
          24.0107
          24.0779
          24.0779
          24.0779
          24.0779
          24.0845
          24.0965
          24.1137
          24.1137
          24.1137
          24.1137
          24.0541
          23.9998
          23.9507
          23.9507
          23.9507
          23.9507
          23.36
          22.7742
          22.1926
          21.6142
          21.0375
          21.0462
          21.7566
          22.4686
          23.1833
          23.902
          23.9021
          23.9021
          23.9021
          23.9588
          24.0207
          24.0878
          24.0878
          24.0878
          24.0878
          24.0945
          24.1064
          24.1236
          24.1236
          24.1236
          24.1236
          24.0641
          24.0098
          23.9607
          23.9607
          23.9607
          23.9606
          23.3689
          22.7817
          22.1981
          21.6172
          21.0377
          21.0464
          21.7597
          22.4744
          23.1918
          23.9132
          23.9132
          23.9132
          23.9132
          23.9699
          24.0318
          24.0989
          24.0989
          24.0989
          24.0989
          24.1056
          24.1175
          24.1347
          24.1347
          24.1347
          24.1347
          24.0752
          24.0209
          23.9718
          23.9718
          23.9718
          23.9718
          23.3784
          22.7892
          22.2035
          21.6201
          21.0379
          21.0466
          21.763
          22.4807
          23.2011
          23.9254
          23.9255
          23.9255
          23.9255
          23.9822
          24.044
          24.1111
          24.1111
          24.1111
          24.1111
          24.1178
          24.1297
          24.1469
          24.1469
          24.1469
          24.1469
          24.0874
          24.0332
          23.9841
          23.9841
          23.9841
          23.9841
          23.3886
          22.7973
          22.2091
          21.623
          21.038
          21.0468
          21.7666
          22.4877
          23.2113
          23.9389
          23.9389
          23.939
          23.939
          23.9956
          24.0574
          24.1244
          24.1244
          24.1244
          24.1244
          24.1312
          24.1431
          24.1603
          24.1603
          24.1603
          24.1603
          24.1008
          24.0466
          23.9976
          23.9976
          23.9975
          23.9975
          23.3998
          22.806
          22.2152
          21.6263
          21.0382
          21.047
          21.7705
          22.4952
          23.2225
          23.9535
          23.9536
          23.9536
          23.9536
          24.0102
          24.0719
          24.139
          24.139
          24.139
          24.139
          24.1457
          24.1576
          24.1748
          24.1748
          24.1748
          24.1748
          24.1154
          24.0612
          24.0122
          24.0122
          24.0121
          24.0121
          23.412
          22.8158
          22.2221
          21.6299
          21.0385
          21.0473
          21.7749
          22.5036
          23.2346
          23.9693
          23.9693
          23.9694
          23.9694
          24.0259
          24.0876
          24.1546
          24.1546
          24.1546
          24.1546
          24.1613
          24.1733
          24.1905
          24.1905
          24.1905
          24.1905
          24.1311
          24.0769
          24.0279
          24.0279
          24.0279
          24.0279
          23.4256
          22.8269
          22.2301
          21.6343
          21.0387
          21.0476
          21.7799
          22.513
          23.2479
          23.9862
          23.9863
          23.9863
          23.9863
          24.0428
          24.1045
          24.1714
          24.1714
          24.1714
          24.1714
          24.1782
          24.1901
          24.2073
          24.2073
          24.2073
          24.2073
          24.1479
          24.0938
          24.0448
          24.0448
          24.0448
          24.0448
          23.441
          22.8401
          22.24
          21.6397
          21.0391
          21.048
          21.7859
          22.5239
          23.2627
          24.0043
          24.0043
          24.0044
          24.0044
          24.0608
          24.1225
          24.1894
          24.1894
          24.1894
          24.1894
          24.1961
          24.2081
          24.2253
          24.2253
          24.2253
          24.2253
          24.1659
          24.1118
          24.0629
          24.0629
          24.0629
          24.0629
          23.4589
          22.8565
          22.253
          21.6471
          21.0396
          21.0484
          21.7938
          22.5375
          23.28
          24.0236
          24.0236
          24.0236
          24.0236
          24.0801
          24.1417
          24.2085
          24.2085
          24.2085
          24.2085
          24.2153
          24.2273
          24.2444
          24.2444
          24.2444
          24.2444
          24.1851
          24.131
          24.0822
          24.0822
          24.0821
          24.0821
          23.4808
          22.8787
          22.2715
          21.658
          21.0402
          21.0496
          21.8055
          22.5567
          23.3014
          24.044
          24.044
          24.044
          24.0441
          24.1004
          24.162
          24.2288
          24.2288
          24.2288
          24.2288
          24.2357
          24.2476
          24.2647
          24.2647
          24.2647
          24.2647
          24.2054
          24.1514
          24.1026
          24.1026
          24.1025
          24.1025
          23.5093
          22.9109
          22.3001
          21.6753
          21.0417
          21.049
          21.8263
          22.5873
          23.3315
          24.0655
          24.0655
          24.0656
          24.0657
          24.122
          24.1834
          24.2501
          24.2502
          24.2502
          24.2503
          24.2574
          24.2693
          24.2862
          24.2861
          24.2861
          24.2861
          24.227
          24.173
          24.1242
          24.1241
          24.124
          24.124
          23.5492
          22.9616
          22.3476
          21.7058
          21.0417
          21.0604
          21.8628
          22.6446
          23.3794
          24.0881
          24.0882
          24.0884
          24.0885
          24.1448
          24.2061
          24.2725
          24.2726
          24.2729
          24.273
          24.2808
          24.2927
          24.3088
          24.3088
          24.3086
          24.3085
          24.2498
          24.196
          24.147
          24.1469
          24.1467
          24.1466
          23.6093
          23.0456
          22.4325
          21.7573
          21.0542
          21.027
          21.9586
          22.7543
          23.4667
          24.1116
          24.1119
          24.1125
          24.1128
          24.1692
          24.2299
          24.2957
          24.2961
          24.2969
          24.2972
          24.3068
          24.3186
          24.3329
          24.3327
          24.3322
          24.3319
          24.2741
          24.2207
          24.1712
          24.1709
          24.1704
          24.1701
          23.7014
          23.1915
          22.584
          21.8755
          21.0215
          21.215
          22.0977
          23.0125
          23.6231
          24.1354
          24.1364
          24.1381
          24.139
          24.196
          24.2553
          24.3188
          24.3201
          24.3225
          24.3238
          24.3378
          24.3494
          24.3589
          24.358
          24.3566
          24.3557
          24.3007
          24.2484
          24.1975
          24.1965
          24.1948
          24.1938
          23.8374
          23.4336
          22.9011
          22.0446
          21.2141
          20.4768
          22.8496
          23.4948
          23.8673
          24.1582
          24.1604
          24.1665
          24.1687
          24.2293
          24.2827
          24.3399
          24.3431
          24.3516
          24.3547
          24.3804
          24.3907
          24.388
          24.386
          24.3807
          24.3787
          24.3312
          24.2839
          24.2273
          24.225
          24.2187
          24.2164
          24.0192
          23.7903
          23.4588
          22.8417
          20.4664
          24.1656
          24.1703
          24.1745
          24.1787
          24.178
          24.1809
          24.1929
          24.219
          24.2765
          24.3161
          24.3489
          24.3644
          24.3816
          24.4062
          24.4462
          24.4535
          24.4308
          24.4147
          24.404
          24.3949
          24.3715
          24.3352
          24.2781
          24.2516
          24.2391
          24.2355
          24.2348
          24.2295
          24.2244
          24.2198
          24.2149
          24.1674
          24.1708
          24.175
          24.1796
          24.1858
          24.1957
          24.2133
          24.2422
          24.2789
          24.3192
          24.3551
          24.3861
          24.4125
          24.4373
          24.4562
          24.4634
          24.4578
          24.4448
          24.4288
          24.4068
          24.3769
          24.3389
          24.3019
          24.2722
          24.2538
          24.2428
          24.2356
          24.2298
          24.2246
          24.2202
          24.2167
          24.1694
          24.1718
          24.1759
          24.1819
          24.1906
          24.2039
          24.2238
          24.2511
          24.2855
          24.3253
          24.3709
          24.4133
          24.4453
          24.4692
          24.4851
          24.4918
          24.489
          24.4779
          24.4591
          24.4314
          24.3914
          24.3481
          24.3118
          24.2831
          24.2621
          24.2477
          24.2377
          24.2305
          24.2251
          24.2211
          24.2187
          24.1709
          24.1723
          24.1763
          24.1828
          24.1923
          24.2066
          24.2268
          24.254
          24.2879
          24.3285
          24.3802
          24.4293
          24.463
          24.4871
          24.5026
          24.5091
          24.5068
          24.4959
          24.4764
          24.4466
          24.4006
          24.3519
          24.3151
          24.2863
          24.2647
          24.2494
          24.2386
          24.2309
          24.2253
          24.2215
          24.2202
        </DataArray>
      </PointData>
      <CellData>
      </CellData>
      <Points>
        <DataArray type="Float32" NumberOfComponents="3" format="ascii">
          0.039 0.00195 0.0
          0.0377 0.00195 0.0
          0.0364 0.00195 0.0
          0.0351 0.00195 0.0
          0.0338 0.00195 0.0
          0.0325 0.00195 0.0
          0.0312 0.00195 0.0
          0.0299 0.00195 0.0
          0.0286 0.00195 0.0
          0.0273 0.00195 0.0
          0.026 0.00195 0.0
          0.0247 0.00195 0.0
          0.0234 0.00195 0.0
          0.0221 0.00195 0.0
          0.0208 0.00195 0.0
          0.0195 0.00195 0.0
          0.0182 0.00195 0.0
          0.0169 0.00195 0.0
          0.0156 0.00195 0.0
          0.0143 0.00195 0.0
          0.013 0.00195 0.0
          0.0117 0.00195 0.0
          0.0104 0.00195 0.0
          0.0091 0.00195 0.0
          0.0078 0.00195 0.0
          0.0065 0.00195 0.0
          0.0052 0.00195 0.0
          0.0039 0.00195 0.0
          0.0026 0.00195 0.0
          0.0013 0.00195 0.0
          0 0.00195 0.0
          0.039 0.00065 0.0
          0.0377 0.00065 0.0
          0.0364 0.00065 0.0
          0.0351 0.00065 0.0
          0.0338 0.00065 0.0
          0.0325 0.00065 0.0
          0.0312 0.00065 0.0
          0.0299 0.00065 0.0
          0.0286 0.00065 0.0
          0.0273 0.00065 0.0
          0.026 0.00065 0.0
          0.0247 0.00065 0.0
          0.0234 0.00065 0.0
          0.0221 0.00065 0.0
          0.0208 0.00065 0.0
          0.0195 0.00065 0.0
          0.0182 0.00065 0.0
          0.0169 0.00065 0.0
          0.0156 0.00065 0.0
          0.0143 0.00065 0.0
          0.013 0.00065 0.0
          0.0117 0.00065 0.0
          0.0104 0.00065 0.0
          0.0091 0.00065 0.0
          0.0078 0.00065 0.0
          0.0065 0.00065 0.0
          0.0052 0.00065 0.0
          0.0039 0.00065 0.0
          0.0026 0.00065 0.0
          0.0013 0.00065 0.0
          0 0.00065 0.0
          0.039 -0.00065 0.0
          0.0377 -0.00065 0.0
          0.0364 -0.00065 0.0
          0.0351 -0.00065 0.0
          0.0338 -0.00065 0.0
          0.0325 -0.00065 0.0
          0.0312 -0.00065 0.0
          0.0299 -0.00065 0.0
          0.0286 -0.00065 0.0
          0.0273 -0.00065 0.0
          0.026 -0.00065 0.0
          0.0247 -0.00065 0.0
          0.0234 -0.00065 0.0
          0.0221 -0.00065 0.0
          0.0208 -0.00065 0.0
          0.0195 -0.00065 0.0
          0.0182 -0.00065 0.0
          0.0169 -0.00065 0.0
          0.0156 -0.00065 0.0
          0.0143 -0.00065 0.0
          0.013 -0.00065 0.0
          0.0117 -0.00065 0.0
          0.0104 -0.00065 0.0
          0.0091 -0.00065 0.0
          0.0078 -0.00065 0.0
          0.0065 -0.00065 0.0
          0.0052 -0.00065 0.0
          0.0039 -0.00065 0.0
          0.0026 -0.00065 0.0
          0.0013 -0.00065 0.0
          0 -0.00065 0.0
          0.039 -0.00195 0.0
          0.0377 -0.00195 0.0
          0.0364 -0.00195 0.0
          0.0351 -0.00195 0.0
          0.0338 -0.00195 0.0
          0.0325 -0.00195 0.0
          0.0312 -0.00195 0.0
          0.0299 -0.00195 0.0
          0.0286 -0.00195 0.0
          0.0273 -0.00195 0.0
          0.026 -0.00195 0.0
          0.0247 -0.00195 0.0
          0.0234 -0.00195 0.0
          0.0221 -0.00195 0.0
          0.0208 -0.00195 0.0
          0.0195 -0.00195 0.0
          0.0182 -0.00195 0.0
          0.0169 -0.00195 0.0
          0.0156 -0.00195 0.0
          0.0143 -0.00195 0.0
          0.013 -0.00195 0.0
          0.0117 -0.00195 0.0
          0.0104 -0.00195 0.0
          0.0091 -0.00195 0.0
          0.0078 -0.00195 0.0
          0.0065 -0.00195 0.0
          0.0052 -0.00195 0.0
          0.0039 -0.00195 0.0
          0.0026 -0.00195 0.0
          0.0013 -0.00195 0.0
          0 -0.00195 0.0
          0.039 -0.00325 0.0
          0.0377 -0.00325 0.0
          0.0364 -0.00325 0.0
          0.0351 -0.00325 0.0
          0.0338 -0.00325 0.0
          0.0325 -0.00325 0.0
          0.0312 -0.00325 0.0
          0.0299 -0.00325 0.0
          0.0286 -0.00325 0.0
          0.0273 -0.00325 0.0
          0.026 -0.00325 0.0
          0.0247 -0.00325 0.0
          0.0234 -0.00325 0.0
          0.0221 -0.00325 0.0
          0.0208 -0.00325 0.0
          0.0195 -0.00325 0.0
          0.0182 -0.00325 0.0
          0.0169 -0.00325 0.0
          0.0156 -0.00325 0.0
          0.0143 -0.00325 0.0
          0.013 -0.00325 0.0
          0.0117 -0.00325 0.0
          0.0104 -0.00325 0.0
          0.0091 -0.00325 0.0
          0.0078 -0.00325 0.0
          0.0065 -0.00325 0.0
          0.0052 -0.00325 0.0
          0.0039 -0.00325 0.0
          0.0026 -0.00325 0.0
          0.0013 -0.00325 0.0
          0 -0.00325 0.0
          0.039 -0.00455 0.0
          0.0377 -0.00455 0.0
          0.0364 -0.00455 0.0
          0.0351 -0.00455 0.0
          0.0338 -0.00455 0.0
          0.0325 -0.00455 0.0
          0.0312 -0.00455 0.0
          0.0299 -0.00455 0.0
          0.0286 -0.00455 0.0
          0.0273 -0.00455 0.0
          0.026 -0.00455 0.0
          0.0247 -0.00455 0.0
          0.0234 -0.00455 0.0
          0.0221 -0.00455 0.0
          0.0208 -0.00455 0.0
          0.0195 -0.00455 0.0
          0.0182 -0.00455 0.0
          0.0169 -0.00455 0.0
          0.0156 -0.00455 0.0
          0.0143 -0.00455 0.0
          0.013 -0.00455 0.0
          0.0117 -0.00455 0.0
          0.0104 -0.00455 0.0
          0.0091 -0.00455 0.0
          0.0078 -0.00455 0.0
          0.0065 -0.00455 0.0
          0.0052 -0.00455 0.0
          0.0039 -0.00455 0.0
          0.0026 -0.00455 0.0
          0.0013 -0.00455 0.0
          0 -0.00455 0.0
          0.039 -0.00585 0.0
          0.0377 -0.00585 0.0
          0.0364 -0.00585 0.0
          0.0351 -0.00585 0.0
          0.0338 -0.00585 0.0
          0.0325 -0.00585 0.0
          0.0312 -0.00585 0.0
          0.0299 -0.00585 0.0
          0.0286 -0.00585 0.0
          0.0273 -0.00585 0.0
          0.026 -0.00585 0.0
          0.0247 -0.00585 0.0
          0.0234 -0.00585 0.0
          0.0221 -0.00585 0.0
          0.0208 -0.00585 0.0
          0.0195 -0.00585 0.0
          0.0182 -0.00585 0.0
          0.0169 -0.00585 0.0
          0.0156 -0.00585 0.0
          0.0143 -0.00585 0.0
          0.013 -0.00585 0.0
          0.0117 -0.00585 0.0
          0.0104 -0.00585 0.0
          0.0091 -0.00585 0.0
          0.0078 -0.00585 0.0
          0.0065 -0.00585 0.0
          0.0052 -0.00585 0.0
          0.0039 -0.00585 0.0
          0.0026 -0.00585 0.0
          0.0013 -0.00585 0.0
          0 -0.00585 0.0
          0.039 -0.00715 0.0
          0.0377 -0.00715 0.0
          0.0364 -0.00715 0.0
          0.0351 -0.00715 0.0
          0.0338 -0.00715 0.0
          0.0325 -0.00715 0.0
          0.0312 -0.00715 0.0
          0.0299 -0.00715 0.0
          0.0286 -0.00715 0.0
          0.0273 -0.00715 0.0
          0.026 -0.00715 0.0
          0.0247 -0.00715 0.0
          0.0234 -0.00715 0.0
          0.0221 -0.00715 0.0
          0.0208 -0.00715 0.0
          0.0195 -0.00715 0.0
          0.0182 -0.00715 0.0
          0.0169 -0.00715 0.0
          0.0156 -0.00715 0.0
          0.0143 -0.00715 0.0
          0.013 -0.00715 0.0
          0.0117 -0.00715 0.0
          0.0104 -0.00715 0.0
          0.0091 -0.00715 0.0
          0.0078 -0.00715 0.0
          0.0065 -0.00715 0.0
          0.0052 -0.00715 0.0
          0.0039 -0.00715 0.0
          0.0026 -0.00715 0.0
          0.0013 -0.00715 0.0
          0 -0.00715 0.0
          0.039 -0.00845 0.0
          0.0377 -0.00845 0.0
          0.0364 -0.00845 0.0
          0.0351 -0.00845 0.0
          0.0338 -0.00845 0.0
          0.0325 -0.00845 0.0
          0.0312 -0.00845 0.0
          0.0299 -0.00845 0.0
          0.0286 -0.00845 0.0
          0.0273 -0.00845 0.0
          0.026 -0.00845 0.0
          0.0247 -0.00845 0.0
          0.0234 -0.00845 0.0
          0.0221 -0.00845 0.0
          0.0208 -0.00845 0.0
          0.0195 -0.00845 0.0
          0.0182 -0.00845 0.0
          0.0169 -0.00845 0.0
          0.0156 -0.00845 0.0
          0.0143 -0.00845 0.0
          0.013 -0.00845 0.0
          0.0117 -0.00845 0.0
          0.0104 -0.00845 0.0
          0.0091 -0.00845 0.0
          0.0078 -0.00845 0.0
          0.0065 -0.00845 0.0
          0.0052 -0.00845 0.0
          0.0039 -0.00845 0.0
          0.0026 -0.00845 0.0
          0.0013 -0.00845 0.0
          0 -0.00845 0.0
          0.039 -0.00975 0.0
          0.0377 -0.00975 0.0
          0.0364 -0.00975 0.0
          0.0351 -0.00975 0.0
          0.0338 -0.00975 0.0
          0.0325 -0.00975 0.0
          0.0312 -0.00975 0.0
          0.0299 -0.00975 0.0
          0.0286 -0.00975 0.0
          0.0273 -0.00975 0.0
          0.026 -0.00975 0.0
          0.0247 -0.00975 0.0
          0.0234 -0.00975 0.0
          0.0221 -0.00975 0.0
          0.0208 -0.00975 0.0
          0.0195 -0.00975 0.0
          0.0182 -0.00975 0.0
          0.0169 -0.00975 0.0
          0.0156 -0.00975 0.0
          0.0143 -0.00975 0.0
          0.013 -0.00975 0.0
          0.0117 -0.00975 0.0
          0.0104 -0.00975 0.0
          0.0091 -0.00975 0.0
          0.0078 -0.00975 0.0
          0.0065 -0.00975 0.0
          0.0052 -0.00975 0.0
          0.0039 -0.00975 0.0
          0.0026 -0.00975 0.0
          0.0013 -0.00975 0.0
          0 -0.00975 0.0
          0.039 -0.01105 0.0
          0.0377 -0.01105 0.0
          0.0364 -0.01105 0.0
          0.0351 -0.01105 0.0
          0.0338 -0.01105 0.0
          0.0325 -0.01105 0.0
          0.0312 -0.01105 0.0
          0.0299 -0.01105 0.0
          0.0286 -0.01105 0.0
          0.0273 -0.01105 0.0
          0.026 -0.01105 0.0
          0.0247 -0.01105 0.0
          0.0234 -0.01105 0.0
          0.0221 -0.01105 0.0
          0.0208 -0.01105 0.0
          0.0195 -0.01105 0.0
          0.0182 -0.01105 0.0
          0.0169 -0.01105 0.0
          0.0156 -0.01105 0.0
          0.0143 -0.01105 0.0
          0.013 -0.01105 0.0
          0.0117 -0.01105 0.0
          0.0104 -0.01105 0.0
          0.0091 -0.01105 0.0
          0.0078 -0.01105 0.0
          0.0065 -0.01105 0.0
          0.0052 -0.01105 0.0
          0.0039 -0.01105 0.0
          0.0026 -0.01105 0.0
          0.0013 -0.01105 0.0
          0 -0.01105 0.0
          0.039 -0.01235 0.0
          0.0377 -0.01235 0.0
          0.0364 -0.01235 0.0
          0.0351 -0.01235 0.0
          0.0338 -0.01235 0.0
          0.0325 -0.01235 0.0
          0.0312 -0.01235 0.0
          0.0299 -0.01235 0.0
          0.0286 -0.01235 0.0
          0.0273 -0.01235 0.0
          0.026 -0.01235 0.0
          0.0247 -0.01235 0.0
          0.0234 -0.01235 0.0
          0.0221 -0.01235 0.0
          0.0208 -0.01235 0.0
          0.0195 -0.01235 0.0
          0.0182 -0.01235 0.0
          0.0169 -0.01235 0.0
          0.0156 -0.01235 0.0
          0.0143 -0.01235 0.0
          0.013 -0.01235 0.0
          0.0117 -0.01235 0.0
          0.0104 -0.01235 0.0
          0.0091 -0.01235 0.0
          0.0078 -0.01235 0.0
          0.0065 -0.01235 0.0
          0.0052 -0.01235 0.0
          0.0039 -0.01235 0.0
          0.0026 -0.01235 0.0
          0.0013 -0.01235 0.0
          0 -0.01235 0.0
          0.039 -0.01365 0.0
          0.0377 -0.01365 0.0
          0.0364 -0.01365 0.0
          0.0351 -0.01365 0.0
          0.0338 -0.01365 0.0
          0.0325 -0.01365 0.0
          0.0312 -0.01365 0.0
          0.0299 -0.01365 0.0
          0.0286 -0.01365 0.0
          0.0273 -0.01365 0.0
          0.026 -0.01365 0.0
          0.0247 -0.01365 0.0
          0.0234 -0.01365 0.0
          0.0221 -0.01365 0.0
          0.0208 -0.01365 0.0
          0.0195 -0.01365 0.0
          0.0182 -0.01365 0.0
          0.0169 -0.01365 0.0
          0.0156 -0.01365 0.0
          0.0143 -0.01365 0.0
          0.013 -0.01365 0.0
          0.0117 -0.01365 0.0
          0.0104 -0.01365 0.0
          0.0091 -0.01365 0.0
          0.0078 -0.01365 0.0
          0.0065 -0.01365 0.0
          0.0052 -0.01365 0.0
          0.0039 -0.01365 0.0
          0.0026 -0.01365 0.0
          0.0013 -0.01365 0.0
          0 -0.01365 0.0
          0.039 -0.01495 0.0
          0.0377 -0.01495 0.0
          0.0364 -0.01495 0.0
          0.0351 -0.01495 0.0
          0.0338 -0.01495 0.0
          0.0325 -0.01495 0.0
          0.0312 -0.01495 0.0
          0.0299 -0.01495 0.0
          0.0286 -0.01495 0.0
          0.0273 -0.01495 0.0
          0.026 -0.01495 0.0
          0.0247 -0.01495 0.0
          0.0234 -0.01495 0.0