<?xml version="1.0"?>
<VTKFile type="UnstructuredGrid" version="0.1" byte_order="LittleEndian">
  <UnstructuredGrid>
    <Piece NumberOfPoints="961" NumberOfCells="900">
      <PointData Scalars="Temperature">
        <DataArray type="Float32" Name="Temperature" format="ascii">
          21.0018
          21.031
          21.0613
          21.0914
          21.1166
          21.1334
          21.1401
          21.1403
          21.139
          21.1401
          21.1438
          21.1471
          21.1474
          21.1447
          21.142
          21.1422
          21.1452
          21.148
          21.1479
          21.1446
          21.141
          21.14
          21.1415
          21.1417
          21.1358
          21.1206
          21.0979
          21.0715
          21.046
          21.0227
          21.0014
          21.0301
          21.4995
          22.0027
          22.5071
          22.9439
          23.218
          23.3186
          23.2992
          23.2637
          23.2822
          23.3557
          23.4234
          23.4275
          23.3702
          23.313
          23.3157
          23.3778
          23.4381
          23.4356
          23.369
          23.297
          23.2808
          23.3196
          23.3441
          23.2553
          23.0057
          22.6113
          22.1668
          21.7406
          21.3673
          21.0221
          21.056
          21.9313
          22.883
          24.0194
          24.9422
          25.5284
          25.6264
          25.469
          25.3025
          25.3431
          25.5756
          25.7961
          25.8001
          25.5972
          25.3955
          25.4022
          25.6138
          25.8226
          25.8202
          25.6008
          25.3706
          25.335
          25.5075
          25.6718
          25.5853
          25.043
          24.2017
          23.187
          22.3811
          21.6846
          21.0412
          21.0775
          22.2881
          23.616
          25.205
          28.0629
          28.0632
          28.0633
          28.0631
          26.8266
          26.8835
          28.266
          28.2662
          28.2662
          28.266
          26.9503
          26.9603
          28.3024
          28.3025
          28.3025
          28.3024
          26.9203
          26.8705
          28.1247
          28.1248
          28.1247
          28.1244
          25.4461
          24.0374
          22.9162
          21.9524
          21.0574
          21.0931
          22.5446
          24.1064
          25.957
          28.0639
          28.064
          28.064
          28.064
          27.7175
          27.7851
          28.2669
          28.2669
          28.2669
          28.2669
          27.8587
          27.8708
          28.3033
          28.3033
          28.3033
          28.3033
          27.8271
          27.7679
          28.1256
          28.1256
          28.1255
          28.1254
          26.2401
          24.6212
          23.3139
          22.1571
          21.0699
          21.103
          22.7003
          24.376
          26.1724
          28.0658
          28.0659
          28.066
          28.066
          28.0003
          28.0679
          28.2688
          28.2688
          28.2688
          28.2688
          28.1457
          28.1578
          28.3052
          28.3052
          28.3052
          28.3052
          28.1118
          28.0526
          28.1275
          28.1275
          28.1275
          28.1274
          26.4907
          24.9611
          23.5732
          22.2982
          21.0787
          21.1083
          22.7819
          24.4937
          26.2605
          28.0689
          28.069
          28.0691
          28.0691
          28.0915
          28.1591
          28.2718
          28.2718
          28.2718
          28.2718
          28.2381
          28.2502
          28.3082
          28.3082
          28.3082
          28.3082
          28.2035
          28.1443
          28.1306
          28.1306
          28.1305
          28.1305
          26.6048
          25.1292
          23.7255
          22.3863
          21.0842
          21.1109
          22.8201
          24.5473
          26.3002
          28.0731
          28.0732
          28.0733
          28.0733
          28.1233
          28.1908
          28.2759
          28.2759
          28.2759
          28.2759
          28.2703
          28.2824
          28.3123
          28.3123
          28.3123
          28.3123
          28.2355
          28.1763
          28.1348
          28.1348
          28.1347
          28.1347
          26.6625
          25.2167
          23.8091
          22.4374
          21.0875
          21.1121
          22.838
          24.5727
          26.3202
          28.0785
          28.0786
          28.0786
          28.0786
          28.1372
          28.2047
          28.2811
          28.2811
          28.2811
          28.2811
          28.2843
          28.2964
          28.3175
          28.3175
          28.3175
          28.3175
          28.2494
          28.1903
          28.1401
          28.1401
          28.14
          28.14
          26.6943
          25.2641
          23.855
          22.466
          21.0894
          21.1128
          22.8471
          24.5861
          26.3321
          28.0849
          28.085
          28.0851
          28.0851
          28.1464
          28.2138
          28.2874
          28.2874
          28.2874
          28.2874
          28.2933
          28.3054
          28.3237
          28.3237
          28.3237
          28.3237
          28.2585
          28.1994
          28.1465
          28.1465
          28.1465
          28.1464
          26.7138
          25.291
          23.8808
          22.482
          21.0904
          21.1131
          22.8524
          24.5944
          26.3409
          28.0925
          28.0926
          28.0926
          28.0926
          28.1547
          28.2221
          28.2947
          28.2947
          28.2947
          28.2947
          28.3015
          28.3136
          28.3311
          28.3311
          28.3311
          28.3311
          28.2668
          28.2078
          28.1541
          28.154
          28.154
          28.1539
          26.7273
          25.3077
          23.8961
          22.4914
          21.091
          21.1133
          22.8561
          24.6008
          26.3488
          28.1012
          28.1013
          28.1013
          28.1013
          28.1636
          28.2308
          28.3032
          28.3032
          28.3032
          28.3032
          28.3102
          28.3223
          28.3395
          28.3395
          28.3395
          28.3395
          28.2755
          28.2166
          28.1627
          28.1627
          28.1626
          28.1626
          26.7382
          25.3194
          23.9061
          22.4974
          21.0914
          21.1135
          22.8593
          24.6066
          26.3568
          28.111
          28.111
          28.1111
          28.1111
          28.1734
          28.2405
          28.3127
          28.3127
          28.3127
          28.3127
          28.3198
          28.332
          28.3491
          28.3491
          28.3491
          28.3491
          28.2852
          28.2264
          28.1725
          28.1724
          28.1724
          28.1723
          26.7482
          25.3288
          23.9136
          22.5017
          21.0917
          21.1137
          22.8625
          24.6126
          26.3653
          28.1219
          28.122
          28.122
          28.122
          28.1842
          28.2513
          28.3233
          28.3233
          28.3233
          28.3233
          28.3305
          28.3426
          28.3597
          28.3597
          28.3597
          28.3597
          28.296
          28.2372
          28.1833
          28.1833
          28.1833
          28.1832
          26.7582
          25.3374
          23.9201
          22.5053
          21.0919
          21.1139
          22.8658
          24.6189
          26.3746
          28.1339
          28.134
          28.1341
          28.1341
          28.1961
          28.2631
          28.335
          28.335
          28.335
          28.335
          28.3422
          28.3543
          28.3714
          28.3714
          28.3714
          28.3714
          28.3078
          28.2491
          28.1953
          28.1953
          28.1952
          28.1952
          26.7687
          25.3461
          23.9264
          22.5088
          21.0921
          21.1142
          22.8694
          24.6259
          26.3847
          28.1471
          28.1472
          28.1472
          28.1472
          28.2092
          28.276
          28.3478
          28.3478
          28.3478
          28.3478
          28.355
          28.3671
          28.3842
          28.3842
          28.3842
          28.3842
          28.3207
          28.2621
          28.2084
          28.2084
          28.2083
          28.2082
          26.7801
          25.3555
          23.9333
          22.5125
          21.0924
          21.1144
          22.8734
          24.6335
          26.3957
          28.1613
          28.1614
          28.1615
          28.1615
          28.2233
          28.29
          28.3617
          28.3617
          28.3617
          28.3617
          28.3689
          28.381
          28.3981
          28.3981
          28.3981
          28.3981
          28.3347
          28.2762
          28.2226
          28.2226
          28.2225
          28.2224
          26.7928
          25.3662
          23.9412
          22.5168
          21.0926
          21.1147
          22.878
          24.6421
          26.4078
          28.1767
          28.1768
          28.1769
          28.1769
          28.2386
          28.3051
          28.3766
          28.3766
          28.3766
          28.3766
          28.3838
          28.396
          28.4131
          28.4131
          28.4131
          28.4131
          28.3497
          28.2914
          28.2379
          28.2379
          28.2378
          28.2378
          26.8073
          25.3791
          23.9512
          22.5225
          21.093
          21.115
          22.8837
          24.6523
          26.4215
          28.1932
          28.1933
          28.1934
          28.1934
          28.2549
          28.3213
          28.3927
          28.3927
          28.3927
          28.3927
          28.3999
          28.412
          28.4291
          28.4291
          28.4291
          28.4291
          28.3659
          28.3077
          28.2543
          28.2543
          28.2542
          28.2542
          26.8247
          25.3959
          23.9648
          22.5303
          21.0935
          21.1156
          22.8912
          24.6652
          26.4376
          28.2108
          28.2109
          28.211
          28.211
          28.2724
          28.3386
          28.4098
          28.4098
          28.4098
          28.4098
          28.4171
          28.4292
          28.4463
          28.4463
          28.4463
          28.4463
          28.3832
          28.3251
          28.2718
          28.2718
          28.2718
          28.2717
          26.8466
          25.4193
          23.9849
          22.5423
          21.0943
          21.1161
          22.9029
          24.6838
          26.4581
          28.2296
          28.2297
          28.2297
          28.2298
          28.291
          28.357
          28.428
          28.4281
          28.4281
          28.4281
          28.4353
          28.4475
          28.4645
          28.4645
          28.4645
          28.4645
          28.4016
          28.3436
          28.2905
          28.2905
          28.2904
          28.2903
          26.8764
          25.4549
          24.0172
          22.5622
          21.0954
          21.1185
          22.9228
          24.7145
          26.4873
          28.2494
          28.2495
          28.2496
          28.2496
          28.3106
          28.3765
          28.4473
          28.4474
          28.4474
          28.4474
          28.4547
          28.4669
          28.4838
          28.4838
          28.4838
          28.4838
          28.4211
          28.3632
          28.3103
          28.3102
          28.3102
          28.3101
          26.9203
          25.5128
          24.0724
          22.5963
          21.0986
          21.1165
          22.9638
          24.771
          26.5355
          28.2704
          28.2705
          28.2706
          28.2706
          28.3315
          28.3971
          28.4677
          28.4677
          28.4678
          28.4678
          28.4754
          28.4876
          28.5043
          28.5042
          28.5042
          28.5042
          28.4417
          28.384
          28.3312
          28.3311
          28.331
          28.3309
          26.9895
          25.6124
          24.1701
          22.6606
          21.0981
          21.1427
          23.0406
          24.8888
          26.6237
          28.2923
          28.2925
          28.2928
          28.2929
          28.3535
          28.4188
          28.489
          28.4891
          28.4894
          28.4895
          28.4977
          28.5099
          28.5259
          28.5258
          28.5256
          28.5255
          28.4635
          28.4061
          28.3533
          28.3532
          28.3529
          28.3528
          27.1037
          25.7879
          24.3536
          22.773
          21.1266
          21.0645
          23.2549
          25.1278
          26.803
          28.3151
          28.3155
          28.3162
          28.3165
          28.3771
          28.4417
          28.511
          28.5114
          28.5122
          28.5126
          28.5226
          28.5346
          28.5488
          28.5485
          28.548
          28.5478
          28.4868
          28.43
          28.3768
          28.3764
          28.3758
          28.3754
          27.2909
          26.1048
          24.6896
          23.0386
          21.051
          21.5003
          23.5692
          25.7105
          27.1416
          28.3381
          28.3392
          28.3411
          28.3421
          28.403
          28.466
          28.5329
          28.5342
          28.5367
          28.538
          28.5525
          28.5642
          28.5736
          28.5727
          28.5712
          28.5703
          28.5123
          28.4568
          28.4023
          28.4013
          28.3993
          28.3982
          27.5779
          26.6421
          25.4055
          23.4206
          21.4937
          19.7864
          25.3048
          26.8114
          27.6826
          28.3597
          28.3622
          28.369
          28.3714
          28.4356
          28.4921
          28.5526
          28.5558
          28.5646
          28.5678
          28.5938
          28.6043
          28.6015
          28.5995
          28.5939
          28.5919
          28.5415
          28.4914
          28.4316
          28.4291
          28.4221
          28.4195
          27.9687
          27.4398
          26.6728
          25.2463
          19.7733
          28.3472
          28.3575
          28.3656
          28.3733
          28.3768
          28.3817
          28.395
          28.4223
          28.4821
          28.5236
          28.5591
          28.5759
          28.5935
          28.6182
          28.658
          28.6654
          28.6431
          28.6271
          28.616
          28.6058
          28.5799
          28.5418
          28.4827
          28.4551
          28.4414
          28.4358
          28.431
          28.4224
          28.4139
          28.4055
          28.3951
          28.3513
          28.3586
          28.3663
          28.3742
          28.3832
          28.3957
          28.4151
          28.4458
          28.4844
          28.5267
          28.5643
          28.5965
          28.6237
          28.6489
          28.6679
          28.6752
          28.6696
          28.6565
          28.6398
          28.6167
          28.5852
          28.5455
          28.5068
          28.4755
          28.4552
          28.4419
          28.4318
          28.4228
          28.4144
          28.4065
          28.3992
          28.3559
          28.3606
          28.3674
          28.3763
          28.3878
          28.4035
          28.4255
          28.4547
          28.491
          28.5326
          28.5797
          28.6233
          28.6561
          28.6805
          28.6967
          28.7034
          28.7005
          28.6891
          28.6696
          28.6408
          28.5996
          28.5547
          28.5166
          28.4861
          28.463
          28.4463
          28.4337
          28.4236
          28.4152
          28.4084
          28.4037
          28.3593
          28.3615
          28.368
          28.3771
          28.3894
          28.406
          28.4285
          28.4576
          28.4933
          28.5357
          28.5888
          28.6391
          28.6737
          28.6983
          28.7141
          28.7207
          28.7183
          28.707
          28.6868
          28.656
          28.6086
          28.5584
          28.5199
          28.4892
          28.4656
          28.4478
          28.4344
          28.4239
          28.4155
          28.4093
          28.4071
        </DataArray>
      </PointData>
      <CellData>
      </CellData>
      <Points>
        <DataArray type="Float32" NumberOfComponents="3" format="ascii">
          0.039 0.00195 0.0
          0.0377 0.00195 0.0
          0.0364 0.00195 0.0
          0.0351 0.00195 0.0
          0.0338 0.00195 0.0
          0.0325 0.00195 0.0
          0.0312 0.00195 0.0
          0.0299 0.00195 0.0
          0.0286 0.00195 0.0
          0.0273 0.00195 0.0
          0.026 0.00195 0.0
          0.0247 0.00195 0.0
          0.0234 0.00195 0.0
          0.0221 0.00195 0.0
          0.0208 0.00195 0.0
          0.0195 0.00195 0.0
          0.0182 0.00195 0.0
          0.0169 0.00195 0.0
          0.0156 0.00195 0.0
          0.0143 0.00195 0.0
          0.013 0.00195 0.0
          0.0117 0.00195 0.0
          0.0104 0.00195 0.0
          0.0091 0.00195 0.0
          0.0078 0.00195 0.0
          0.0065 0.00195 0.0
          0.0052 0.00195 0.0
          0.0039 0.00195 0.0
          0.0026 0.00195 0.0
          0.0013 0.00195 0.0
          0 0.00195 0.0
          0.039 0.00065 0.0
          0.0377 0.00065 0.0
          0.0364 0.00065 0.0
          0.0351 0.00065 0.0
          0.0338 0.00065 0.0
          0.0325 0.00065 0.0
          0.0312 0.00065 0.0
          0.0299 0.00065 0.0
          0.0286 0.00065 0.0
          0.0273 0.00065 0.0
          0.026 0.00065 0.0
          0.0247 0.00065 0.0
          0.0234 0.00065 0.0
          0.0221 0.00065 0.0
          0.0208 0.00065 0.0
          0.0195 0.00065 0.0
          0.0182 0.00065 0.0
          0.0169 0.00065 0.0
          0.0156 0.00065 0.0
          0.0143 0.00065 0.0
          0.013 0.00065 0.0
          0.0117 0.00065 0.0
          0.0104 0.00065 0.0
          0.0091 0.00065 0.0
          0.0078 0.00065 0.0
          0.0065 0.00065 0.0
          0.0052 0.00065 0.0
          0.0039 0.00065 0.0
          0.0026 0.00065 0.0
          0.0013 0.00065 0.0
          0 0.00065 0.0
          0.039 -0.00065 0.0
          0.0377 -0.00065 0.0
          0.0364 -0.00065 0.0
          0.0351 -0.00065 0.0
          0.0338 -0.00065 0.0
          0.0325 -0.00065 0.0
          0.0312 -0.00065 0.0
          0.0299 -0.00065 0.0
          0.0286 -0.00065 0.0
          0.0273 -0.00065 0.0
          0.026 -0.00065 0.0
          0.0247 -0.00065 0.0
          0.0234 -0.00065 0.0
          0.0221 -0.00065 0.0
          0.0208 -0.00065 0.0
          0.0195 -0.00065 0.0
          0.0182 -0.00065 0.0
          0.0169 -0.00065 0.0
          0.0156 -0.00065 0.0
          0.0143 -0.00065 0.0
          0.013 -0.00065 0.0
          0.0117 -0.00065 0.0
          0.0104 -0.00065 0.0
          0.0091 -0.00065 0.0
          0.0078 -0.00065 0.0
          0.0065 -0.00065 0.0
          0.0052 -0.00065 0.0
          0.0039 -0.00065 0.0
          0.0026 -0.00065 0.0
          0.0013 -0.00065 0.0
          0 -0.00065 0.0
          0.039 -0.00195 0.0
          0.0377 -0.00195 0.0
          0.0364 -0.00195 0.0
          0.0351 -0.00195 0.0
          0.0338 -0.00195 0.0
          0.0325 -0.00195 0.0
          0.0312 -0.00195 0.0
          0.0299 -0.00195 0.0
          0.0286 -0.00195 0.0
          0.0273 -0.00195 0.0
          0.026 -0.00195 0.0
          0.0247 -0.00195 0.0
          0.0234 -0.00195 0.0
          0.0221 -0.00195 0.0
          0.0208 -0.00195 0.0
          0.0195 -0.00195 0.0
          0.0182 -0.00195 0.0
          0.0169 -0.00195 0.0
          0.0156 -0.00195 0.0
          0.0143 -0.00195 0.0
          0.013 -0.00195 0.0
          0.0117 -0.00195 0.0
          0.0104 -0.00195 0.0
          0.0091 -0.00195 0.0
          0.0078 -0.00195 0.0
          0.0065 -0.00195 0.0
          0.0052 -0.00195 0.0
          0.0039 -0.00195 0.0
          0.0026 -0.00195 0.0
          0.0013 -0.00195 0.0
          0 -0.00195 0.0
          0.039 -0.00325 0.0
          0.0377 -0.00325 0.0
          0.0364 -0.00325 0.0
          0.0351 -0.00325 0.0
          0.0338 -0.00325 0.0
          0.0325 -0.00325 0.0
          0.0312 -0.00325 0.0
          0.0299 -0.00325 0.0
          0.0286 -0.00325 0.0
          0.0273 -0.00325 0.0
          0.026 -0.00325 0.0
          0.0247 -0.00325 0.0
          0.0234 -0.00325 0.0
          0.0221 -0.00325 0.0
          0.0208 -0.00325 0.0
          0.0195 -0.00325 0.0
          0.0182 -0.00325 0.0
          0.0169 -0.00325 0.0
          0.0156 -0.00325 0.0
          0.0143 -0.00325 0.0
          0.013 -0.00325 0.0
          0.0117 -0.00325 0.0
          0.0104 -0.00325 0.0
          0.0091 -0.00325 0.0
          0.0078 -0.00325 0.0
          0.0065 -0.00325 0.0
          0.0052 -0.00325 0.0
          0.0039 -0.00325 0.0
          0.0026 -0.00325 0.0
          0.0013 -0.00325 0.0
          0 -0.00325 0.0
          0.039 -0.00455 0.0
          0.0377 -0.00455 0.0
          0.0364 -0.00455 0.0
          0.0351 -0.00455 0.0
          0.0338 -0.00455 0.0
          0.0325 -0.00455 0.0
          0.0312 -0.00455 0.0
          0.0299 -0.00455 0.0
          0.0286 -0.00455 0.0
          0.0273 -0.00455 0.0
          0.026 -0.00455 0.0
          0.0247 -0.00455 0.0
          0.0234 -0.00455 0.0
          0.0221 -0.00455 0.0
          0.0208 -0.00455 0.0
          0.0195 -0.00455 0.0
          0.0182 -0.00455 0.0
          0.0169 -0.00455 0.0
          0.0156 -0.00455 0.0
          0.0143 -0.00455 0.0
          0.013 -0.00455 0.0
          0.0117 -0.00455 0.0
          0.0104 -0.00455 0.0
          0.0091 -0.00455 0.0
          0.0078 -0.00455 0.0
          0.0065 -0.00455 0.0
          0.0052 -0.00455 0.0
          0.0039 -0.00455 0.0
          0.0026 -0.00455 0.0
          0.0013 -0.00455 0.0
          0 -0.00455 0.0
          0.039 -0.00585 0.0
          0.0377 -0.00585 0.0
          0.0364 -0.00585 0.0
          0.0351 -0.00585 0.0
          0.0338 -0.00585 0.0
          0.0325 -0.00585 0.0
          0.0312 -0.00585 0.0
          0.0299 -0.00585 0.0
          0.0286 -0.00585 0.0
          0.0273 -0.00585 0.0
          0.026 -0.00585 0.0
          0.0247 -0.00585 0.0
          0.0234 -0.00585 0.0
          0.0221 -0.00585 0.0
          0.0208 -0.00585 0.0
          0.0195 -0.00585 0.0
          0.0182 -0.00585 0.0
          0.0169 -0.00585 0.0
          0.0156 -0.00585 0.0
          0.0143 -0.00585 0.0
          0.013 -0.00585 0.0
          0.0117 -0.00585 0.0
          0.0104 -0.00585 0.0
          0.0091 -0.00585 0.0
          0.0078 -0.00585 0.0
          0.0065 -0.00585 0.0
          0.0052 -0.00585 0.0
          0.0039 -0.00585 0.0
          0.0026 -0.00585 0.0
          0.0013 -0.00585 0.0
          0 -0.00585 0.0
          0.039 -0.00715 0.0
          0.0377 -0.00715 0.0
          0.0364 -0.00715 0.0
          0.0351 -0.00715 0.0
          0.0338 -0.00715 0.0
          0.0325 -0.00715 0.0
          0.0312 -0.00715 0.0
          0.0299 -0.00715 0.0
          0.0286 -0.00715 0.0
          0.0273 -0.00715 0.0
          0.026 -0.00715 0.0
          0.0247 -0.00715 0.0
          0.0234 -0.00715 0.0
          0.0221 -0.00715 0.0
          0.0208 -0.00715 0.0
          0.0195 -0.00715 0.0
          0.0182 -0.00715 0.0
          0.0169 -0.00715 0.0
          0.0156 -0.00715 0.0
          0.0143 -0.00715 0.0
          0.013 -0.00715 0.0
          0.0117 -0.00715 0.0
          0.0104 -0.00715 0.0
          0.0091 -0.00715 0.0
          0.0078 -0.00715 0.0
          0.0065 -0.00715 0.0
          0.0052 -0.00715 0.0
          0.0039 -0.00715 0.0
          0.0026 -0.00715 0.0
          0.0013 -0.00715 0.0
          0 -0.00715 0.0
          0.039 -0.00845 0.0
          0.0377 -0.00845 0.0
          0.0364 -0.00845 0.0
          0.0351 -0.00845 0.0
          0.0338 -0.00845 0.0
          0.0325 -0.00845 0.0
          0.0312 -0.00845 0.0
          0.0299 -0.00845 0.0
          0.0286 -0.00845 0.0
          0.0273 -0.00845 0.0
          0.026 -0.00845 0.0
          0.0247 -0.00845 0.0
          0.0234 -0.00845 0.0
          0.0221 -0.00845 0.0
          0.0208 -0.00845 0.0
          0.0195 -0.00845 0.0
          0.0182 -0.00845 0.0
          0.0169 -0.00845 0.0
          0.0156 -0.00845 0.0
          0.0143 -0.00845 0.0
          0.013 -0.00845 0.0
          0.0117 -0.00845 0.0
          0.0104 -0.00845 0.0
          0.0091 -0.00845 0.0
          0.0078 -0.00845 0.0
          0.0065 -0.00845 0.0
          0.0052 -0.00845 0.0
          0.0039 -0.00845 0.0
          0.0026 -0.00845 0.0
          0.0013 -0.00845 0.0
          0 -0.00845 0.0
          0.039 -0.00975 0.0
          0.0377 -0.00975 0.0
          0.0364 -0.00975 0.0
          0.0351 -0.00975 0.0
          0.0338 -0.00975 0.0
          0.0325 -0.00975 0.0
          0.0312 -0.00975 0.0
          0.0299 -0.00975 0.0
          0.0286 -0.00975 0.0
          0.0273 -0.00975 0.0
          0.026 -0.00975 0.0
          0.0247 -0.00975 0.0
          0.0234 -0.00975 0.0
          0.0221 -0.00975 0.0
          0.0208 -0.00975 0.0
          0.0195 -0.00975 0.0
          0.0182 -0.00975 0.0
          0.0169 -0.00975 0.0
          0.0156 -0.00975 0.0
          0.0143 -0.00975 0.0
          0.013 -0.00975 0.0
          0.0117 -0.00975 0.0
          0.0104 -0.00975 0.0
          0.0091 -0.00975 0.0
          0.0078 -0.00975 0.0
          0.0065 -0.00975 0.0
          0.0052 -0.00975 0.0
          0.0039 -0.00975 0.0
          0.0026 -0.00975 0.0
          0.0013 -0.00975 0.0
          0 -0.00975 0.0
          0.039 -0.01105 0.0
          0.0377 -0.01105 0.0
          0.0364 -0.01105 0.0
          0.0351 -0.01105 0.0
          0.0338 -0.01105 0.0
          0.0325 -0.01105 0.0
          0.0312 -0.01105 0.0
          0.0299 -0.01105 0.0
          0.0286 -0.01105 0.0
          0.0273 -0.01105 0.0
          0.026 -0.01105 0.0
          0.0247 -0.01105 0.0
          0.0234 -0.01105 0.0
          0.0221 -0.01105 0.0
          0.0208 -0.01105 0.0
          0.0195 -0.01105 0.0
          0.0182 -0.01105 0.0
          0.0169 -0.01105 0.0
          0.0156 -0.01105 0.0
          0.0143 -0.01105 0.0
          0.013 -0.01105 0.0
          0.0117 -0.01105 0.0
          0.0104 -0.01105 0.0
          0.0091 -0.01105 0.0
          0.0078 -0.01105 0.0
          0.0065 -0.01105 0.0
          0.0052 -0.01105 0.0
          0.0039 -0.01105 0.0
          0.0026 -0.01105 0.0
          0.0013 -0.01105 0.0
          0 -0.01105 0.0
          0.039 -0.01235 0.0
          0.0377 -0.01235 0.0
          0.0364 -0.01235 0.0
          0.0351 -0.01235 0.0
          0.0338 -0.01235 0.0
          0.0325 -0.01235 0.0
          0.0312 -0.01235 0.0
          0.0299 -0.01235 0.0
          0.0286 -0.01235 0.0
          0.0273 -0.01235 0.0
          0.026 -0.01235 0.0
          0.0247 -0.01235 0.0
          0.0234 -0.01235 0.0
          0.0221 -0.01235 0.0
          0.0208 -0.01235 0.0
          0.0195 -0.01235 0.0
          0.0182 -0.01235 0.0
          0.0169 -0.01235 0.0
          0.0156 -0.01235 0.0
          0.0143 -0.01235 0.0
          0.013 -0.01235 0.0
          0.0117 -0.01235 0.0
          0.0104 -0.01235 0.0
          0.0091 -0.01235 0.0
          0.0078 -0.01235 0.0
          0.0065 -0.01235 0.0
          0.0052 -0.01235 0.0
          0.0039 -0.01235 0.0
          0.0026 -0.01235 0.0
          0.0013 -0.01235 0.0
          0 -0.01235 0.0
          0.039 -0.01365 0.0
          0.0377 -0.01365 0.0
          0.0364 -0.01365 0.0
          0.0351 -0.01365 0.0
          0.0338 -0.01365 0.0
          0.0325 -0.01365 0.0
          0.0312 -0.01365 0.0
          0.0299 -0.01365 0.0
          0.0286 -0.01365 0.0
          0.0273 -0.01365 0.0
          0.026 -0.01365 0.0
          0.0247 -0.01365 0.0
          0.0234 -0.01365 0.0
          0.0221 -0.01365 0.0
          0.0208 -0.01365 0.0
          0.0195 -0.01365 0.0
          0.0182 -0.01365 0.0
          0.0169 -0.01365 0.0
          0.0156 -0.01365 0.0
          0.0143 -0.01365 0.0
          0.013 -0.01365 0.0
          0.0117 -0.01365 0.0
          0.0104 -0.01365 0.0
          0.0091 -0.01365 0.0
          0.0078 -0.01365 0.0
          0.0065 -0.01365 0.0
          0.0052 -0.01365 0.0
          0.0039 -0.01365 0.0
          0.0026 -0.01365 0.0
          0.0013 -0.01365 0.0
          0 -0.01365 0.0
          0.039 -0.01495 0.0
          0.0377 -0.01495 0.0
          0.0364 -0.01495 0.0
          0.0351 -0.01495 0.0
          0.0338 -0.01495 0.0
          0.0325 -0.01495 0.0
          0.0312 -0.01495 0.0
          0.0299 -0.01495 0.0
          0.0286 -0.01495 0.0
          0.0273 -0.01495 0.0
          0.026 -0.01495 0.0
          0.0247 -0.01495 0.0
          0.0234 -0.01495 0.0
          0.0221 -0.01495 0.0