<?xml version="1.0"?>
<VTKFile type="UnstructuredGrid" version="0.1" byte_order="LittleEndian">
  <UnstructuredGrid>
    <Piece NumberOfPoints="961" NumberOfCells="900">
      <PointData Scalars="Temperature">
        <DataArray type="Float32" Name="Temperature" format="ascii">
          21.0024
          21.0407
          21.0804
          21.1198
          21.153
          21.1749
          21.1836
          21.1838
          21.1818
          21.1831
          21.1877
          21.1919
          21.1922
          21.1887
          21.1851
          21.1853
          21.1891
          21.1929
          21.1927
          21.1885
          21.184
          21.1829
          21.1851
          21.1854
          21.1777
          21.1579
          21.1282
          21.0936
          21.0602
          21.0298
          21.0018
          21.0395
          21.6552
          22.3151
          22.9765
          23.5491
          23.9082
          24.0392
          24.0119
          23.9621
          23.9823
          24.0748
          24.161
          24.1654
          24.09
          24.0148
          24.0176
          24.0976
          24.176
          24.1734
          24.0882
          23.9974
          23.9797
          24.0333
          24.0669
          23.9515
          23.6252
          23.1092
          22.5275
          21.9698
          21.481
          21.029
          21.0734
          22.2215
          23.4696
          24.9594
          26.1691
          26.9371
          27.0648
          26.8552
          26.6306
          26.6739
          26.9702
          27.2539
          27.2581
          26.9929
          26.7289
          26.7356
          27.0096
          27.2807
          27.2782
          26.9957
          26.7018
          26.6639
          26.895
          27.1128
          27.0003
          26.2912
          25.1907
          23.863
          22.8083
          21.8964
          21.054
          21.1016
          22.6894
          24.4308
          26.5138
          30.2589
          30.2594
          30.2595
          30.2593
          28.6253
          28.6851
          30.4709
          30.4711
          30.4711
          30.4709
          28.7549
          28.7648
          30.5074
          30.5077
          30.5077
          30.5074
          28.7224
          28.67
          30.3221
          30.3223
          30.3222
          30.3218
          26.8191
          24.9762
          23.5089
          22.247
          21.0752
          21.1221
          23.0257
          25.0737
          27.4994
          30.26
          30.2602
          30.2603
          30.2603
          29.791
          29.8615
          30.4718
          30.4719
          30.4719
          30.4719
          29.9381
          29.9503
          30.5084
          30.5085
          30.5085
          30.5084
          29.9041
          29.8424
          30.3231
          30.3231
          30.323
          30.3229
          27.8578
          25.7401
          24.0293
          22.515
          21.0915
          21.1351
          23.2298
          25.4269
          27.7815
          30.2621
          30.2622
          30.2623
          30.2623
          30.1602
          30.2307
          30.4738
          30.4738
          30.4738
          30.4738
          30.3114
          30.3236
          30.5104
          30.5104
          30.5104
          30.5104
          30.2751
          30.2134
          30.3251
          30.3251
          30.325
          30.3249
          28.1854
          26.1847
          24.3687
          22.6996
          21.103
          21.1421
          23.3366
          25.5808
          27.8963
          30.2652
          30.2653
          30.2654
          30.2654
          30.2785
          30.3489
          30.4768
          30.4768
          30.4768
          30.4768
          30.4309
          30.4431
          30.5134
          30.5134
          30.5134
          30.5134
          30.394
          30.3322
          30.3282
          30.3282
          30.3281
          30.328
          28.334
          26.4042
          24.5677
          22.8148
          21.1103
          21.1454
          23.3863
          25.6504
          27.9474
          30.2694
          30.2696
          30.2696
          30.2697
          30.3188
          30.3892
          30.4809
          30.4809
          30.4809
          30.4809
          30.4716
          30.4837
          30.5174
          30.5174
          30.5174
          30.5174
          30.4344
          30.3727
          30.3324
          30.3324
          30.3323
          30.3322
          28.4085
          26.5181
          24.6766
          22.8815
          21.1146
          21.147
          23.4095
          25.683
          27.9724
          30.2748
          30.2749
          30.2749
          30.275
          30.3354
          30.4057
          30.486
          30.486
          30.486
          30.486
          30.4881
          30.5003
          30.5226
          30.5226
          30.5226
          30.5226
          30.451
          30.3894
          30.3377
          30.3377
          30.3376
          30.3375
          28.4489
          26.5791
          24.736
          22.9186
          21.117
          21.1478
          23.4208
          25.6994
          27.9864
          30.2812
          30.2813
          30.2814
          30.2814
          30.3453
          30.4155
          30.4921
          30.4921
          30.4921
          30.4922
          30.4979
          30.5101
          30.5287
          30.5287
          30.5287
          30.5287
          30.4608
          30.3992
          30.3441
          30.3441
          30.344
          30.3439
          28.4728
          26.6132
          24.7689
          22.9392
          21.1183
          21.1482
          23.4271
          25.7091
          27.9962
          30.2887
          30.2888
          30.2889
          30.2889
          30.3538
          30.4239
          30.4994
          30.4994
          30.4994
          30.4994
          30.5063
          30.5185
          30.536
          30.536
          30.536
          30.536
          30.4692
          30.4078
          30.3516
          30.3515
          30.3515
          30.3514
          28.4886
          26.6336
          24.788
          22.951
          21.1191
          21.1485
          23.4312
          25.7161
          28.0045
          30.2973
          30.2974
          30.2975
          30.2975
          30.3626
          30.4327
          30.5076
          30.5076
          30.5076
          30.5076
          30.5149
          30.5271
          30.5442
          30.5442
          30.5442
          30.5442
          30.4779
          30.4166
          30.3601
          30.3601
          30.36
          30.3599
          28.5006
          26.6472
          24.8
          22.9582
          21.1196
          21.1487
          23.4346
          25.7222
          28.0126
          30.307
          30.3071
          30.3072
          30.3072
          30.3723
          30.4422
          30.517
          30.517
          30.517
          30.517
          30.5243
          30.5365
          30.5536
          30.5536
          30.5536
          30.5536
          30.4875
          30.4262
          30.3698
          30.3697
          30.3697
          30.3696
          28.5112
          26.6576
          24.8086
          22.9632
          21.1199
          21.1489
          23.4379
          25.7282
          28.0212
          30.3178
          30.3179
          30.318
          30.318
          30.383
          30.4528
          30.5274
          30.5274
          30.5274
          30.5274
          30.5348
          30.547
          30.564
          30.564
          30.564
          30.564
          30.498
          30.4369
          30.3805
          30.3805
          30.3804
          30.3803
          28.5214
          26.6668
          24.8157
          22.9672
          21.1201
          21.1491
          23.4412
          25.7346
          28.0303
          30.3297
          30.3298
          30.3299
          30.3299
          30.3948
          30.4644
          30.5388
          30.5388
          30.5388
          30.5388
          30.5462
          30.5584
          30.5754
          30.5754
          30.5754
          30.5754
          30.5096
          30.4486
          30.3923
          30.3923
          30.3922
          30.3921
          28.5321
          26.6758
          24.8224
          22.9709
          21.1204
          21.1493
          23.4448
          25.7415
          28.0403
          30.3427
          30.3428
          30.3429
          30.3429
          30.4076
          30.4771
          30.5513
          30.5513
          30.5513
          30.5513
          30.5587
          30.5709
          30.5879
          30.5879
          30.5879
          30.5879
          30.5222
          30.4613
          30.4052
          30.4052
          30.4051
          30.405
          28.5436
          26.6855
          24.8296
          22.9748
          21.1206
          21.1496
          23.4489
          25.7491
          28.0513
          30.3568
          30.3569
          30.357
          30.357
          30.4215
          30.4908
          30.5648
          30.5648
          30.5648
          30.5648
          30.5723
          30.5845
          30.6015
          30.6015
          30.6015
          30.6015
          30.5359
          30.4752
          30.4192
          30.4192
          30.4191
          30.419
          28.5565
          26.6968
          24.8381
          22.9796
          21.1209
          21.1498
          23.4536
          25.7579
          28.0635
          30.372
          30.3721
          30.3722
          30.3722
          30.4365
          30.5056
          30.5794
          30.5794
          30.5794
          30.5794
          30.5869
          30.5991
          30.6161
          30.6161
          30.6161
          30.6161
          30.5507
          30.4901
          30.4343
          30.4343
          30.4342
          30.4341
          28.5716
          26.7107
          24.8491
          22.9858
          21.1213
          21.1502
          23.4596
          25.7685
          28.0774
          30.3882
          30.3884
          30.3884
          30.3885
          30.4526
          30.5214
          30.5951
          30.5951
          30.5951
          30.5951
          30.6025
          30.6147
          30.6317
          30.6317
          30.6317
          30.6317
          30.5665
          30.5061
          30.4504
          30.4504
          30.4504
          30.4503
          28.59
          26.7293
          24.8646
          22.995
          21.1219
          21.1508
          23.4679
          25.7825
          28.0941
          30.4056
          30.4057
          30.4058
          30.4058
          30.4697
          30.5384
          30.6118
          30.6118
          30.6118
          30.6118
          30.6192
          30.6315
          30.6484
          30.6484
          30.6484
          30.6484
          30.5834
          30.5232
          30.4677
          30.4677
          30.4676
          30.4675
          28.614
          26.7563
          24.8885
          23.0094
          21.1229
          21.1514
          23.4815
          25.8036
          28.1163
          30.4241
          30.4242
          30.4243
          30.4243
          30.488
          30.5564
          30.6295
          30.6295
          30.6296
          30.6296
          30.637
          30.6493
          30.6662
          30.6662
          30.6662
          30.6662
          30.6014
          30.5413
          30.486
          30.486
          30.4859
          30.4858
          28.648
          26.7989
          24.928
          23.0339
          21.1242
          21.1544
          23.5057
          25.8403
          28.1495
          30.4436
          30.4438
          30.4439
          30.4439
          30.5073
          30.5754
          30.6483
          30.6483
          30.6484
          30.6484
          30.656
          30.6682
          30.685
          30.685
          30.685
          30.685
          30.6204
          30.5606
          30.5055
          30.5054
          30.5054
          30.5053
          28.6999
          26.8702
          24.9969
          23.0769
          21.1283
          21.1518
          23.5573
          25.9103
          28.2071
          30.4643
          30.4644
          30.4645
          30.4646
          30.5277
          30.5956
          30.6681
          30.6682
          30.6683
          30.6683
          30.6761
          30.6883
          30.7049
          30.7049
          30.7049
          30.7048
          30.6406
          30.581
          30.526
          30.526
          30.5259
          30.5257
          28.7843
          26.9953
          25.121
          23.1587
          21.1276
          21.1855
          23.6551
          26.0597
          28.3165
          30.4859
          30.4861
          30.4864
          30.4865
          30.5494
          30.6168
          30.6889
          30.689
          30.6893
          30.6894
          30.6979
          30.7101
          30.726
          30.7259
          30.7257
          30.7256
          30.6619
          30.6027
          30.5478
          30.5476
          30.5474
          30.5472
          28.9268
          27.2186
          25.3559
          23.3029
          21.1644
          21.0841
          23.9312
          26.3661
          28.5436
          30.5083
          30.5087
          30.5094
          30.5098
          30.5725
          30.6391
          30.7103
          30.7107
          30.7115
          30.7119
          30.7222
          30.7342
          30.7483
          30.748
          30.7475
          30.7473
          30.6847
          30.6261
          30.5709
          30.5705
          30.5698
          30.5694
          29.1636
          27.6248
          25.7882
          23.6454
          21.0664
          21.6492
          24.337
          27.1181
          28.9774
          30.5308
          30.532
          30.534
          30.5351
          30.5981
          30.6629
          30.7315
          30.7329
          30.7354
          30.7367
          30.7514
          30.7632
          30.7725
          30.7716
          30.77
          30.7692
          30.7096
          30.6524
          30.5961
          30.5949
          30.5929
          30.5917
          29.5295
          28.316
          26.7121
          24.1385
          21.6395
          19.4262
          26.5858
          28.5418
          29.6732
          30.5518
          30.5544
          30.5616
          30.5642
          30.6302
          30.6883
          30.7504
          30.7537
          30.7627
          30.7659
          30.7921
          30.8026
          30.7998
          30.7977
          30.7921
          30.79
          30.7381
          30.6865
          30.6251
          30.6224
          30.6151
          30.6124
          30.0293
          29.3439
          28.3496
          26.5009
          19.4117
          30.5289
          30.5422
          30.5523
          30.5618
          30.5675
          30.5734
          30.5874
          30.6153
          30.6763
          30.7188
          30.7558
          30.7731
          30.791
          30.8157
          30.8555
          30.8629
          30.8408
          30.8248
          30.8135
          30.8028
          30.7755
          30.7365
          30.6764
          30.6482
          30.6338
          30.6272
          30.6202
          30.6099
          30.5997
          30.5893
          30.576
          30.5342
          30.5435
          30.553
          30.5627
          30.5732
          30.5869
          30.6074
          30.6391
          30.6786
          30.7219
          30.7603
          30.7933
          30.8208
          30.8462
          30.8653
          30.8726
          30.8671
          30.8538
          30.8368
          30.8131
          30.7808
          30.7402
          30.7006
          30.6684
          30.6472
          30.6326
          30.621
          30.6104
          30.6003
          30.5906
          30.5812
          30.5402
          30.5461
          30.5543
          30.5647
          30.5776
          30.5946
          30.6176
          30.6479
          30.6851
          30.7276
          30.7756
          30.8198
          30.853
          30.8777
          30.894
          30.9008
          30.8978
          30.8862
          30.8664
          30.837
          30.795
          30.7493
          30.7103
          30.6789
          30.6548
          30.6368
          30.6228
          30.6111
          30.6012
          30.5931
          30.5871
          30.5445
          30.5472
          30.555
          30.5655
          30.5791
          30.597
          30.6206
          30.6508
          30.6875
          30.7307
          30.7846
          30.8355
          30.8705
          30.8954
          30.9114
          30.9181
          30.9155
          30.904
          30.8835
          30.8521
          30.804
          30.753
          30.7136
          30.6819
          30.6572
          30.6383
          30.6235
          30.6115
          30.6017
          30.5941
          30.5915
        </DataArray>
      </PointData>
      <CellData>
      </CellData>
      <Points>
        <DataArray type="Float32" NumberOfComponents="3" format="ascii">
          0.039 0.00195 0.0
          0.0377 0.00195 0.0
          0.0364 0.00195 0.0
          0.0351 0.00195 0.0
          0.0338 0.00195 0.0
          0.0325 0.00195 0.0
          0.0312 0.00195 0.0
          0.0299 0.00195 0.0
          0.0286 0.00195 0.0
          0.0273 0.00195 0.0
          0.026 0.00195 0.0
          0.0247 0.00195 0.0
          0.0234 0.00195 0.0
          0.0221 0.00195 0.0
          0.0208 0.00195 0.0
          0.0195 0.00195 0.0
          0.0182 0.00195 0.0
          0.0169 0.00195 0.0
          0.0156 0.00195 0.0
          0.0143 0.00195 0.0
          0.013 0.00195 0.0
          0.0117 0.00195 0.0
          0.0104 0.00195 0.0
          0.0091 0.00195 0.0
          0.0078 0.00195 0.0
          0.0065 0.00195 0.0
          0.0052 0.00195 0.0
          0.0039 0.00195 0.0
          0.0026 0.00195 0.0
          0.0013 0.00195 0.0
          0 0.00195 0.0
          0.039 0.00065 0.0
          0.0377 0.00065 0.0
          0.0364 0.00065 0.0
          0.0351 0.00065 0.0
          0.0338 0.00065 0.0
          0.0325 0.00065 0.0
          0.0312 0.00065 0.0
          0.0299 0.00065 0.0
          0.0286 0.00065 0.0
          0.0273 0.00065 0.0
          0.026 0.00065 0.0
          0.0247 0.00065 0.0
          0.0234 0.00065 0.0
          0.0221 0.00065 0.0
          0.0208 0.00065 0.0
          0.0195 0.00065 0.0
          0.0182 0.00065 0.0
          0.0169 0.00065 0.0
          0.0156 0.00065 0.0
          0.0143 0.00065 0.0
          0.013 0.00065 0.0
          0.0117 0.00065 0.0
          0.0104 0.00065 0.0
          0.0091 0.00065 0.0
          0.0078 0.00065 0.0
          0.0065 0.00065 0.0
          0.0052 0.00065 0.0
          0.0039 0.00065 0.0
          0.0026 0.00065 0.0
          0.0013 0.00065 0.0
          0 0.00065 0.0
          0.039 -0.00065 0.0
          0.0377 -0.00065 0.0
          0.0364 -0.00065 0.0
          0.0351 -0.00065 0.0
          0.0338 -0.00065 0.0
          0.0325 -0.00065 0.0
          0.0312 -0.00065 0.0
          0.0299 -0.00065 0.0
          0.0286 -0.00065 0.0
          0.0273 -0.00065 0.0
          0.026 -0.00065 0.0
          0.0247 -0.00065 0.0
          0.0234 -0.00065 0.0
          0.0221 -0.00065 0.0
          0.0208 -0.00065 0.0
          0.0195 -0.00065 0.0
          0.0182 -0.00065 0.0
          0.0169 -0.00065 0.0
          0.0156 -0.00065 0.0
          0.0143 -0.00065 0.0
          0.013 -0.00065 0.0
          0.0117 -0.00065 0.0
          0.0104 -0.00065 0.0
          0.0091 -0.00065 0.0
          0.0078 -0.00065 0.0
          0.0065 -0.00065 0.0
          0.0052 -0.00065 0.0
          0.0039 -0.00065 0.0
          0.0026 -0.00065 0.0
          0.0013 -0.00065 0.0
          0 -0.00065 0.0
          0.039 -0.00195 0.0
          0.0377 -0.00195 0.0
          0.0364 -0.00195 0.0
          0.0351 -0.00195 0.0
          0.0338 -0.00195 0.0
          0.0325 -0.00195 0.0
          0.0312 -0.00195 0.0
          0.0299 -0.00195 0.0
          0.0286 -0.00195 0.0
          0.0273 -0.00195 0.0
          0.026 -0.00195 0.0
          0.0247 -0.00195 0.0
          0.0234 -0.00195 0.0
          0.0221 -0.00195 0.0
          0.0208 -0.00195 0.0
          0.0195 -0.00195 0.0
          0.0182 -0.00195 0.0
          0.0169 -0.00195 0.0
          0.0156 -0.00195 0.0
          0.0143 -0.00195 0.0
          0.013 -0.00195 0.0
          0.0117 -0.00195 0.0
          0.0104 -0.00195 0.0
          0.0091 -0.00195 0.0
          0.0078 -0.00195 0.0
          0.0065 -0.00195 0.0
          0.0052 -0.00195 0.0
          0.0039 -0.00195 0.0
          0.0026 -0.00195 0.0
          0.0013 -0.00195 0.0
          0 -0.00195 0.0
          0.039 -0.00325 0.0
          0.0377 -0.00325 0.0
          0.0364 -0.00325 0.0
          0.0351 -0.00325 0.0
          0.0338 -0.00325 0.0
          0.0325 -0.00325 0.0
          0.0312 -0.00325 0.0
          0.0299 -0.00325 0.0
          0.0286 -0.00325 0.0
          0.0273 -0.00325 0.0
          0.026 -0.00325 0.0
          0.0247 -0.00325 0.0
          0.0234 -0.00325 0.0
          0.0221 -0.00325 0.0
          0.0208 -0.00325 0.0
          0.0195 -0.00325 0.0
          0.0182 -0.00325 0.0
          0.0169 -0.00325 0.0
          0.0156 -0.00325 0.0
          0.0143 -0.00325 0.0
          0.013 -0.00325 0.0
          0.0117 -0.00325 0.0
          0.0104 -0.00325 0.0
          0.0091 -0.00325 0.0
          0.0078 -0.00325 0.0
          0.0065 -0.00325 0.0
          0.0052 -0.00325 0.0
          0.0039 -0.00325 0.0
          0.0026 -0.00325 0.0
          0.0013 -0.00325 0.0
          0 -0.00325 0.0
          0.039 -0.00455 0.0
          0.0377 -0.00455 0.0
          0.0364 -0.00455 0.0
          0.0351 -0.00455 0.0
          0.0338 -0.00455 0.0
          0.0325 -0.00455 0.0
          0.0312 -0.00455 0.0
          0.0299 -0.00455 0.0
          0.0286 -0.00455 0.0
          0.0273 -0.00455 0.0
          0.026 -0.00455 0.0
          0.0247 -0.00455 0.0
          0.0234 -0.00455 0.0
          0.0221 -0.00455 0.0
          0.0208 -0.00455 0.0
          0.0195 -0.00455 0.0
          0.0182 -0.00455 0.0
          0.0169 -0.00455 0.0
          0.0156 -0.00455 0.0
          0.0143 -0.00455 0.0
          0.013 -0.00455 0.0
          0.0117 -0.00455 0.0
          0.0104 -0.00455 0.0
          0.0091 -0.00455 0.0
          0.0078 -0.00455 0.0
          0.0065 -0.00455 0.0
          0.0052 -0.00455 0.0
          0.0039 -0.00455 0.0
          0.0026 -0.00455 0.0
          0.0013 -0.00455 0.0
          0 -0.00455 0.0
          0.039 -0.00585 0.0
          0.0377 -0.00585 0.0
          0.0364 -0.00585 0.0
          0.0351 -0.00585 0.0
          0.0338 -0.00585 0.0
          0.0325 -0.00585 0.0
          0.0312 -0.00585 0.0
          0.0299 -0.00585 0.0
          0.0286 -0.00585 0.0
          0.0273 -0.00585 0.0
          0.026 -0.00585 0.0
          0.0247 -0.00585 0.0
          0.0234 -0.00585 0.0
          0.0221 -0.00585 0.0
          0.0208 -0.00585 0.0
          0.0195 -0.00585 0.0
          0.0182 -0.00585 0.0
          0.0169 -0.00585 0.0
          0.0156 -0.00585 0.0
          0.0143 -0.00585 0.0
          0.013 -0.00585 0.0
          0.0117 -0.00585 0.0
          0.0104 -0.00585 0.0
          0.0091 -0.00585 0.0
          0.0078 -0.00585 0.0
          0.0065 -0.00585 0.0
          0.0052 -0.00585 0.0
          0.0039 -0.00585 0.0
          0.0026 -0.00585 0.0
          0.0013 -0.00585 0.0
          0 -0.00585 0.0
          0.039 -0.00715 0.0
          0.0377 -0.00715 0.0
          0.0364 -0.00715 0.0
          0.0351 -0.00715 0.0
          0.0338 -0.00715 0.0
          0.0325 -0.00715 0.0
          0.0312 -0.00715 0.0
          0.0299 -0.00715 0.0
          0.0286 -0.00715 0.0
          0.0273 -0.00715 0.0
          0.026 -0.00715 0.0
          0.0247 -0.00715 0.0
          0.0234 -0.00715 0.0
          0.0221 -0.00715 0.0
          0.0208 -0.00715 0.0
          0.0195 -0.00715 0.0
          0.0182 -0.00715 0.0
          0.0169 -0.00715 0.0
          0.0156 -0.00715 0.0
          0.0143 -0.00715 0.0
          0.013 -0.00715 0.0
          0.0117 -0.00715 0.0
          0.0104 -0.00715 0.0
          0.0091 -0.00715 0.0
          0.0078 -0.00715 0.0
          0.0065 -0.00715 0.0
          0.0052 -0.00715 0.0
          0.0039 -0.00715 0.0
          0.0026 -0.00715 0.0
          0.0013 -0.00715 0.0
          0 -0.00715 0.0
          0.039 -0.00845 0.0
          0.0377 -0.00845 0.0
          0.0364 -0.00845 0.0
          0.0351 -0.00845 0.0
          0.0338 -0.00845 0.0
          0.0325 -0.00845 0.0
          0.0312 -0.00845 0.0
          0.0299 -0.00845 0.0
          0.0286 -0.00845 0.0
          0.0273 -0.00845 0.0
          0.026 -0.00845 0.0
          0.0247 -0.00845 0.0
          0.0234 -0.00845 0.0
          0.0221 -0.00845 0.0
          0.0208 -0.00845 0.0
          0.0195 -0.00845 0.0
          0.0182 -0.00845 0.0
          0.0169 -0.00845 0.0
          0.0156 -0.00845 0.0
          0.0143 -0.00845 0.0
          0.013 -0.00845 0.0
          0.0117 -0.00845 0.0
          0.0104 -0.00845 0.0
          0.0091 -0.00845 0.0
          0.0078 -0.00845 0.0
          0.0065 -0.00845 0.0
          0.0052 -0.00845 0.0
          0.0039 -0.00845 0.0
          0.0026 -0.00845 0.0
          0.0013 -0.00845 0.0
          0 -0.00845 0.0
          0.039 -0.00975 0.0
          0.0377 -0.00975 0.0
          0.0364 -0.00975 0.0
          0.0351 -0.00975 0.0
          0.0338 -0.00975 0.0
          0.0325 -0.00975 0.0
          0.0312 -0.00975 0.0
          0.0299 -0.00975 0.0
          0.0286 -0.00975 0.0
          0.0273 -0.00975 0.0
          0.026 -0.00975 0.0
          0.0247 -0.00975 0.0
          0.0234 -0.00975 0.0
          0.0221 -0.00975 0.0
          0.0208 -0.00975 0.0
          0.0195 -0.00975 0.0
          0.0182 -0.00975 0.0
          0.0169 -0.00975 0.0
          0.0156 -0.00975 0.0
          0.0143 -0.00975 0.0
          0.013 -0.00975 0.0
          0.0117 -0.00975 0.0
          0.0104 -0.00975 0.0
          0.0091 -0.00975 0.0
          0.0078 -0.00975 0.0
          0.0065 -0.00975 0.0
          0.0052 -0.00975 0.0
          0.0039 -0.00975 0.0
          0.0026 -0.00975 0.0
          0.0013 -0.00975 0.0
          0 -0.00975 0.0
          0.039 -0.01105 0.0
          0.0377 -0.01105 0.0
          0.0364 -0.01105 0.0
          0.0351 -0.01105 0.0
          0.0338 -0.01105 0.0
          0.0325 -0.01105 0.0
          0.0312 -0.01105 0.0
          0.0299 -0.01105 0.0
          0.0286 -0.01105 0.0
          0.0273 -0.01105 0.0
          0.026 -0.01105 0.0
          0.0247 -0.01105 0.0
          0.0234 -0.01105 0.0
          0.0221 -0.01105 0.0
          0.0208 -0.01105 0.0
          0.0195 -0.01105 0.0
          0.0182 -0.01105 0.0
          0.0169 -0.01105 0.0
          0.0156 -0.01105 0.0
          0.0143 -0.01105 0.0
          0.013 -0.01105 0.0
          0.0117 -0.01105 0.0
          0.0104 -0.01105 0.0
          0.0091 -0.01105 0.0
          0.0078 -0.01105 0.0
          0.0065 -0.01105 0.0
          0.0052 -0.01105 0.0
          0.0039 -0.01105 0.0
          0.0026 -0.01105 0.0
          0.0013 -0.01105 0.0
          0 -0.01105 0.0
          0.039 -0.01235 0.0
          0.0377 -0.01235 0.0
          0.0364 -0.01235 0.0
          0.0351 -0.01235 0.0
          0.0338 -0.01235 0.0
          0.0325 -0.01235 0.0
          0.0312 -0.01235 0.0
          0.0299 -0.01235 0.0
          0.0286 -0.01235 0.0
          0.0273 -0.01235 0.0
          0.026 -0.01235 0.0
          0.0247 -0.01235 0.0
          0.0234 -0.01235 0.0
          0.0221 -0.01235 0.0
          0.0208 -0.01235 0.0
          0.0195 -0.01235 0.0
          0.0182 -0.01235 0.0
          0.0169 -0.01235 0.0
          0.0156 -0.01235 0.0
          0.0143 -0.01235 0.0
          0.013 -0.01235 0.0
          0.0117 -0.01235 0.0
          0.0104 -0.01235 0.0
          0.0091 -0.01235 0.0
          0.0078 -0.01235 0.0
          0.0065 -0.01235 0.0
          0.0052 -0.01235 0.0
          0.0039 -0.01235 0.0
          0.0026 -0.01235 0.0
          0.0013 -0.01235 0.0
          0 -0.01235 0.0
          0.039 -0.01365 0.0
          0.0377 -0.01365 0.0
          0.0364 -0.01365 0.0
          0.0351 -0.01365 0.0
          0.0338 -0.01365 0.0
          0.0325 -0.01365 0.0
          0.0312 -0.01365 0.0
          0.0299 -0.01365 0.0
          0.0286 -0.01365 0.0
          0.0273 -0.01365 0.0
          0.026 -0.01365 0.0
          0.0247 -0.01365 0.0
          0.0234 -0.01365 0.0
          0.0221 -0.01365 0.0
          0.0208 -0.01365 0.0
          0.0195 -0.01365 0.0
          0.0182 -0.01365 0.0
          0.0169 -0.01365 0.0
          0.0156 -0.01365 0.0
          0.0143 -0.01365 0.0
          0.013 -0.01365 0.0
          0.0117 -0.01365 0.0
          0.0104 -0.01365 0.0
          0.0091 -0.01365 0.0
          0.0078 -0.01365 0.0
          0.0065 -0.01365 0.0
          0.0052 -0.01365 0.0
          0.0039 -0.01365 0.0
          0.0026 -0.01365 0.0
          0.0013 -0.01365 0.0
          0 -0.01365 0.0
          0.039 -0.01495 0.0
          0.0377 -0.01495 0.0
          0.0364 -0.01495 0.0
          0.0351 -0.01495 0.0
          0.0338 -0.01495 0.0
          0.0325 -0.01495 0.0
          0.0312 -0.01495 0.0
          0.0299 -0.01495 0.0
          0.0286 -0.01495 0.0
          0.0273 -0.01495 0.0
          0.026 -0.01495 0.0
          0.0247 -0.01495 0.0
          0.0234 -0.01495 0.0
          0.0221 -0.01495 0.0