<?xml version="1.0"?>
<VTKFile type="UnstructuredGrid" version="0.1" byte_order="LittleEndian">
  <UnstructuredGrid>
    <Piece NumberOfPoints="961" NumberOfCells="900">
      <PointData Scalars="Temperature">
        <DataArray type="Float32" Name="Temperature" format="ascii">
          21.0006
          21.0108
          21.0213
          21.0317
          21.0405
          21.0464
          21.0488
          21.0492
          21.0491
          21.05
          21.0517
          21.0532
          21.0535
          21.0526
          21.0517
          21.0518
          21.053
          21.0541
          21.0539
          21.0525
          21.0508
          21.0501
          21.0503
          21.0501
          21.0479
          21.0425
          21.0345
          21.0251
          21.0162
          21.008
          21.0005
          21.0104
          21.1731
          21.3478
          21.5231
          21.6753
          21.7712
          21.808
          21.8051
          21.7996
          21.8145
          21.8482
          21.877
          21.8807
          21.8611
          21.8417
          21.8444
          21.8685
          21.8911
          21.8889
          21.861
          21.8286
          21.8155
          21.8232
          21.8285
          21.7956
          21.7069
          21.5673
          21.4104
          21.2603
          21.129
          21.0078
          21.0194
          21.3229
          21.6534
          22.0488
          22.3704
          22.5753
          22.6111
          22.5631
          22.5183
          22.5535
          22.6519
          22.74
          22.7436
          22.6712
          22.6002
          22.6067
          22.6874
          22.7656
          22.7635
          22.6763
          22.5797
          22.5488
          22.5984
          22.6505
          22.6184
          22.426
          22.1282
          21.7695
          21.4854
          21.2404
          21.0145
          21.0269
          21.4468
          21.908
          22.4614
          23.4594
          23.4595
          23.4596
          23.4595
          23.056
          23.1068
          23.6437
          23.6438
          23.6438
          23.6438
          23.1672
          23.1769
          23.6793
          23.6793
          23.6793
          23.6793
          23.1421
          23.0975
          23.5175
          23.5175
          23.5175
          23.5174
          22.5675
          22.0692
          21.6737
          21.3346
          21.0202
          21.0323
          21.536
          22.0787
          22.7236
          23.4601
          23.4602
          23.4602
          23.4602
          23.3706
          23.4321
          23.6445
          23.6445
          23.6445
          23.6445
          23.4993
          23.5111
          23.68
          23.68
          23.68
          23.68
          23.4724
          23.4185
          23.5182
          23.5182
          23.5182
          23.5181
          22.8483
          22.2752
          21.8138
          21.4067
          21.0246
          21.0357
          21.5903
          22.173
          22.7993
          23.462
          23.462
          23.4621
          23.4621
          23.4725
          23.534
          23.6463
          23.6463
          23.6463
          23.6463
          23.6053
          23.6171
          23.6818
          23.6818
          23.6818
          23.6818
          23.5761
          23.5222
          23.52
          23.52
          23.52
          23.52
          22.9376
          22.3956
          21.9056
          21.4565
          21.0277
          21.0376
          21.6192
          22.2149
          22.8314
          23.465
          23.465
          23.4651
          23.4651
          23.5069
          23.5683
          23.6493
          23.6493
          23.6493
          23.6493
          23.641
          23.6528
          23.6848
          23.6848
          23.6848
          23.6848
          23.6111
          23.5571
          23.5231
          23.523
          23.523
          23.523
          22.9792
          22.4559
          21.9599
          21.4879
          21.0296
          21.0386
          21.6331
          22.2348
          22.8472
          23.4692
          23.4692
          23.4692
          23.4692
          23.5209
          23.5823
          23.6534
          23.6534
          23.6535
          23.6535
          23.6554
          23.6672
          23.689
          23.689
          23.689
          23.689
          23.6252
          23.5713
          23.5272
          23.5272
          23.5272
          23.5272
          23.0017
          22.4883
          21.9903
          21.5064
          21.0308
          21.0391
          21.6402
          22.2454
          22.8567
          23.4745
          23.4745
          23.4746
          23.4746
          23.5293
          23.5907
          23.6588
          23.6588
          23.6588
          23.6588
          23.6639
          23.6757
          23.6943
          23.6943
          23.6943
          23.6943
          23.6337
          23.5798
          23.5326
          23.5326
          23.5325
          23.5325
          23.0156
          22.507
          22.0078
          21.5171
          21.0315
          21.0393
          21.6445
          22.2522
          22.8641
          23.481
          23.481
          23.4811
          23.4811
          23.5368
          23.5982
          23.6652
          23.6652
          23.6652
          23.6652
          23.6714
          23.6832
          23.7008
          23.7008
          23.7008
          23.7008
          23.6412
          23.5873
          23.5391
          23.5391
          23.539
          23.539
          23.0259
          22.519
          22.0186
          21.5236
          21.0319
          21.0395
          21.6476
          22.2576
          22.8709
          23.4887
          23.4887
          23.4887
          23.4887
          23.5447
          23.6061
          23.6729
          23.6729
          23.6729
          23.6729
          23.6793
          23.6912
          23.7084
          23.7084
          23.7084
          23.7084
          23.6491
          23.5952
          23.5467
          23.5467
          23.5467
          23.5467
          23.0346
          22.5279
          22.026
          21.528
          21.0322
          21.0397
          21.6504
          22.2628
          22.8781
          23.4975
          23.4975
          23.4976
          23.4976
          23.5536
          23.615
          23.6816
          23.6816
          23.6817
          23.6817
          23.6882
          23.7001
          23.7172
          23.7172
          23.7172
          23.7172
          23.658
          23.6042
          23.5556
          23.5556
          23.5555
          23.5555
          23.0431
          22.5354
          22.0319
          21.5313
          21.0324
          21.0399
          21.6533
          22.2681
          22.8858
          23.5075
          23.5075
          23.5075
          23.5075
          23.5636
          23.625
          23.6916
          23.6916
          23.6916
          23.6916
          23.6982
          23.71
          23.7272
          23.7272
          23.7272
          23.7272
          23.668
          23.6142
          23.5656
          23.5656
          23.5655
          23.5655
          23.0519
          22.5427
          22.0372
          21.5342
          21.0326
          21.0401
          21.6563
          22.274
          22.8943
          23.5186
          23.5187
          23.5187
          23.5187
          23.5748
          23.6361
          23.7027
          23.7027
          23.7027
          23.7027
          23.7093
          23.7212
          23.7383
          23.7383
          23.7383
          23.7383
          23.6792
          23.6253
          23.5767
          23.5767
          23.5767
          23.5767
          23.0613
          22.5502
          22.0424
          21.537
          21.0328
          21.0403
          21.6596
          22.2803
          22.9036
          23.5309
          23.531
          23.531
          23.531
          23.5871
          23.6484
          23.7149
          23.715
          23.715
          23.715
          23.7216
          23.7334
          23.7506
          23.7506
          23.7506
          23.7506
          23.6915
          23.6376
          23.589
          23.589
          23.589
          23.589
          23.0715
          22.5581
          22.048
          21.5399
          21.033
          21.0405
          21.6632
          22.2872
          22.9139
          23.5444
          23.5445
          23.5445
          23.5445
          23.6005
          23.6618
          23.7284
          23.7284
          23.7284
          23.7284
          23.735
          23.7469
          23.764
          23.764
          23.764
          23.764
          23.7049
          23.6511
          23.6025
          23.6025
          23.6025
          23.6025
          23.0826
          22.5668
          22.054
          21.5431
          21.0332
          21.0407
          21.6671
          22.2948
          22.925
          23.5591
          23.5591
          23.5591
          23.5591
          23.6152
          23.6764
          23.7429
          23.7429
          23.7429
          23.7429
          23.7496
          23.7614
          23.7786
          23.7786
          23.7786
          23.7786
          23.7195
          23.6657
          23.6172
          23.6172
          23.6171
          23.6171
          23.0949
          22.5765
          22.0608
          21.5467
          21.0334
          21.041
          21.6715
          22.3031
          22.9371
          23.5749
          23.5749
          23.5749
          23.5749
          23.6309
          23.6922
          23.7587
          23.7587
          23.7587
          23.7587
          23.7653
          23.7772
          23.7943
          23.7943
          23.7943
          23.7943
          23.7353
          23.6815
          23.633
          23.633
          23.6329
          23.6329
          23.1084
          22.5875
          22.0686
          21.5509
          21.0336
          21.0413
          21.6764
          22.3124
          22.9504
          23.5918
          23.5919
          23.5919
          23.5919
          23.6479
          23.7091
          23.7756
          23.7756
          23.7756
          23.7756
          23.7822
          23.7941
          23.8112
          23.8112
          23.8112
          23.8112
          23.7522
          23.6985
          23.6499
          23.6499
          23.6499
          23.6499
          23.1236
          22.6003
          22.0782
          21.5562
          21.034
          21.0417
          21.6823
          22.3231
          22.9651
          23.6099
          23.61
          23.61
          23.61
          23.666
          23.7272
          23.7936
          23.7936
          23.7936
          23.7936
          23.8003
          23.8122
          23.8293
          23.8293
          23.8293
          23.8293
          23.7703
          23.7166
          23.6681
          23.6681
          23.668
          23.668
          23.1411
          22.6161
          22.0905
          21.5631
          21.0344
          21.0421
          21.6898
          22.3363
          22.982
          23.6292
          23.6293
          23.6293
          23.6293
          23.6852
          23.7464
          23.8128
          23.8128
          23.8128
          23.8128
          23.8195
          23.8314
          23.8485
          23.8485
          23.8485
          23.8485
          23.7896
          23.7359
          23.6874
          23.6874
          23.6873
          23.6873
          23.1622
          22.637
          22.1077
          21.5732
          21.035
          21.0432
          21.7007
          22.3544
          23.0028
          23.6497
          23.6497
          23.6498
          23.6498
          23.7057
          23.7668
          23.8331
          23.8331
          23.8332
          23.8332
          23.84
          23.8519
          23.8689
          23.8689
          23.8689
          23.8689
          23.81
          23.7563
          23.7078
          23.7078
          23.7078
          23.7078
          23.1893
          22.6668
          22.1339
          21.5889
          21.0364
          21.0427
          21.7197
          22.3826
          23.0312
          23.6713
          23.6713
          23.6714
          23.6714
          23.7273
          23.7883
          23.8546
          23.8546
          23.8547
          23.8547
          23.8618
          23.8737
          23.8905
          23.8905
          23.8904
          23.8904
          23.8316
          23.778
          23.7295
          23.7295
          23.7294
          23.7293
          23.2265
          22.7129
          22.1766
          21.6162
          21.0364
          21.0527
          21.7523
          22.4342
          23.0752
          23.6939
          23.694
          23.6942
          23.6943
          23.7502
          23.811
          23.8771
          23.8772
          23.8774
          23.8776
          23.8853
          23.8972
          23.9133
          23.9132
          23.913
          23.913
          23.8545
          23.801
          23.7524
          23.7523
          23.7521
          23.752
          23.2814
          22.7883
          22.2523
          21.662
          21.0474
          21.0235
          21.837
          22.5318
          23.1539
          23.7175
          23.7178
          23.7183
          23.7186
          23.7746
          23.835
          23.9004
          23.9008
          23.9015
          23.9019
          23.9114
          23.9232
          23.9374
          23.9372
          23.9367
          23.9365
          23.8789
          23.8258
          23.7767
          23.7764
          23.7759
          23.7756
          23.3647
          22.9182
          22.3865
          21.7664
          21.0188
          21.1882
          21.9597
          22.7595
          23.2932
          23.7414
          23.7423
          23.744
          23.7449
          23.8015
          23.8604
          23.9236
          23.9249
          23.9273
          23.9286
          23.9425
          23.954
          23.9635
          23.9627
          23.9612
          23.9604
          23.9056
          23.8537
          23.8031
          23.8021
          23.8004
          23.7994
          23.4865
          23.1326
          22.6661
          21.9155
          21.1879
          20.5415
          22.6194
          23.1839
          23.5095
          23.7642
          23.7664
          23.7724
          23.7746
          23.8348
          23.888
          23.9449
          23.948
          23.9565
          23.9596
          23.9853
          23.9955
          23.9927
          23.9908
          23.9854
          23.9835
          23.9363
          23.8892
          23.8329
          23.8306
          23.8243
          23.8221
          23.6487
          23.4479
          23.1573
          22.6161
          20.5314
          23.7735
          23.7777
          23.7815
          23.7854
          23.7843
          23.787
          23.7989
          23.8248
          23.8822
          23.9215
          23.954
          23.9695
          23.9865
          24.0112
          24.0512
          24.0585
          24.0357
          24.0195
          24.0089
          23.9999
          23.9767
          23.9406
          23.8836
          23.8573
          23.8449
          23.8415
          23.8411
          23.8361
          23.8313
          23.8271
          23.8228
          23.775
          23.7781
          23.782
          23.7863
          23.7922
          23.8019
          23.8193
          23.848
          23.8846
          23.9247
          23.9604
          23.9912
          24.0175
          24.0424
          24.0611
          24.0683
          24.0627
          24.0498
          24.0338
          24.0119
          23.9821
          23.9443
          23.9075
          23.878
          23.8597
          23.849
          23.842
          23.8365
          23.8316
          23.8275
          23.8244
          23.7769
          23.7791
          23.7829
          23.7886
          23.7971
          23.8102
          23.8298
          23.8569
          23.8911
          23.9308
          23.9762
          24.0185
          24.0504
          24.0742
          24.0901
          24.0968
          24.0939
          24.0829
          24.0642
          24.0365
          23.9967
          23.9535
          23.9173
          23.8888
          23.868
          23.8538
          23.8441
          23.8372
          23.832
          23.8283
          23.8261
          23.7782
          23.7794
          23.7833
          23.7895
          23.7988
          23.8128
          23.8329
          23.8598
          23.8935
          23.934
          23.9855
          24.0345
          24.0681
          24.0921
          24.1076
          24.1141
          24.1118
          24.1009
          24.0815
          24.0518
          24.0059
          23.9573
          23.9206
          23.892
          23.8707
          23.8555
          23.845
          23.8376
          23.8322
          23.8286
          23.8274
        </DataArray>
      </PointData>
      <CellData>
      </CellData>
      <Points>
        <DataArray type="Float32" NumberOfComponents="3" format="ascii">
          0.039 0.00195 0.0
          0.0377 0.00195 0.0
          0.0364 0.00195 0.0
          0.0351 0.00195 0.0
          0.0338 0.00195 0.0
          0.0325 0.00195 0.0
          0.0312 0.00195 0.0
          0.0299 0.00195 0.0
          0.0286 0.00195 0.0
          0.0273 0.00195 0.0
          0.026 0.00195 0.0
          0.0247 0.00195 0.0
          0.0234 0.00195 0.0
          0.0221 0.00195 0.0
          0.0208 0.00195 0.0
          0.0195 0.00195 0.0
          0.0182 0.00195 0.0
          0.0169 0.00195 0.0
          0.0156 0.00195 0.0
          0.0143 0.00195 0.0
          0.013 0.00195 0.0
          0.0117 0.00195 0.0
          0.0104 0.00195 0.0
          0.0091 0.00195 0.0
          0.0078 0.00195 0.0
          0.0065 0.00195 0.0
          0.0052 0.00195 0.0
          0.0039 0.00195 0.0
          0.0026 0.00195 0.0
          0.0013 0.00195 0.0
          0 0.00195 0.0
          0.039 0.00065 0.0
          0.0377 0.00065 0.0
          0.0364 0.00065 0.0
          0.0351 0.00065 0.0
          0.0338 0.00065 0.0
          0.0325 0.00065 0.0
          0.0312 0.00065 0.0
          0.0299 0.00065 0.0
          0.0286 0.00065 0.0
          0.0273 0.00065 0.0
          0.026 0.00065 0.0
          0.0247 0.00065 0.0
          0.0234 0.00065 0.0
          0.0221 0.00065 0.0
          0.0208 0.00065 0.0
          0.0195 0.00065 0.0
          0.0182 0.00065 0.0
          0.0169 0.00065 0.0
          0.0156 0.00065 0.0
          0.0143 0.00065 0.0
          0.013 0.00065 0.0
          0.0117 0.00065 0.0
          0.0104 0.00065 0.0
          0.0091 0.00065 0.0
          0.0078 0.00065 0.0
          0.0065 0.00065 0.0
          0.0052 0.00065 0.0
          0.0039 0.00065 0.0
          0.0026 0.00065 0.0
          0.0013 0.00065 0.0
          0 0.00065 0.0
          0.039 -0.00065 0.0
          0.0377 -0.00065 0.0
          0.0364 -0.00065 0.0
          0.0351 -0.00065 0.0
          0.0338 -0.00065 0.0
          0.0325 -0.00065 0.0
          0.0312 -0.00065 0.0
          0.0299 -0.00065 0.0
          0.0286 -0.00065 0.0
          0.0273 -0.00065 0.0
          0.026 -0.00065 0.0
          0.0247 -0.00065 0.0
          0.0234 -0.00065 0.0
          0.0221 -0.00065 0.0
          0.0208 -0.00065 0.0
          0.0195 -0.00065 0.0
          0.0182 -0.00065 0.0
          0.0169 -0.00065 0.0
          0.0156 -0.00065 0.0
          0.0143 -0.00065 0.0
          0.013 -0.00065 0.0
          0.0117 -0.00065 0.0
          0.0104 -0.00065 0.0
          0.0091 -0.00065 0.0
          0.0078 -0.00065 0.0
          0.0065 -0.00065 0.0
          0.0052 -0.00065 0.0
          0.0039 -0.00065 0.0
          0.0026 -0.00065 0.0
          0.0013 -0.00065 0.0
          0 -0.00065 0.0
          0.039 -0.00195 0.0
          0.0377 -0.00195 0.0
          0.0364 -0.00195 0.0
          0.0351 -0.00195 0.0
          0.0338 -0.00195 0.0
          0.0325 -0.00195 0.0
          0.0312 -0.00195 0.0
          0.0299 -0.00195 0.0
          0.0286 -0.00195 0.0
          0.0273 -0.00195 0.0
          0.026 -0.00195 0.0
          0.0247 -0.00195 0.0
          0.0234 -0.00195 0.0
          0.0221 -0.00195 0.0
          0.0208 -0.00195 0.0
          0.0195 -0.00195 0.0
          0.0182 -0.00195 0.0
          0.0169 -0.00195 0.0
          0.0156 -0.00195 0.0
          0.0143 -0.00195 0.0
          0.013 -0.00195 0.0
          0.0117 -0.00195 0.0
          0.0104 -0.00195 0.0
          0.0091 -0.00195 0.0
          0.0078 -0.00195 0.0
          0.0065 -0.00195 0.0
          0.0052 -0.00195 0.0
          0.0039 -0.00195 0.0
          0.0026 -0.00195 0.0
          0.0013 -0.00195 0.0
          0 -0.00195 0.0
          0.039 -0.00325 0.0
          0.0377 -0.00325 0.0
          0.0364 -0.00325 0.0
          0.0351 -0.00325 0.0
          0.0338 -0.00325 0.0
          0.0325 -0.00325 0.0
          0.0312 -0.00325 0.0
          0.0299 -0.00325 0.0
          0.0286 -0.00325 0.0
          0.0273 -0.00325 0.0
          0.026 -0.00325 0.0
          0.0247 -0.00325 0.0
          0.0234 -0.00325 0.0
          0.0221 -0.00325 0.0
          0.0208 -0.00325 0.0
          0.0195 -0.00325 0.0
          0.0182 -0.00325 0.0
          0.0169 -0.00325 0.0
          0.0156 -0.00325 0.0
          0.0143 -0.00325 0.0
          0.013 -0.00325 0.0
          0.0117 -0.00325 0.0
          0.0104 -0.00325 0.0
          0.0091 -0.00325 0.0
          0.0078 -0.00325 0.0
          0.0065 -0.00325 0.0
          0.0052 -0.00325 0.0
          0.0039 -0.00325 0.0
          0.0026 -0.00325 0.0
          0.0013 -0.00325 0.0
          0 -0.00325 0.0
          0.039 -0.00455 0.0
          0.0377 -0.00455 0.0
          0.0364 -0.00455 0.0
          0.0351 -0.00455 0.0
          0.0338 -0.00455 0.0
          0.0325 -0.00455 0.0
          0.0312 -0.00455 0.0
          0.0299 -0.00455 0.0
          0.0286 -0.00455 0.0
          0.0273 -0.00455 0.0
          0.026 -0.00455 0.0
          0.0247 -0.00455 0.0
          0.0234 -0.00455 0.0
          0.0221 -0.00455 0.0
          0.0208 -0.00455 0.0
          0.0195 -0.00455 0.0
          0.0182 -0.00455 0.0
          0.0169 -0.00455 0.0
          0.0156 -0.00455 0.0
          0.0143 -0.00455 0.0
          0.013 -0.00455 0.0
          0.0117 -0.00455 0.0
          0.0104 -0.00455 0.0
          0.0091 -0.00455 0.0
          0.0078 -0.00455 0.0
          0.0065 -0.00455 0.0
          0.0052 -0.00455 0.0
          0.0039 -0.00455 0.0
          0.0026 -0.00455 0.0
          0.0013 -0.00455 0.0
          0 -0.00455 0.0
          0.039 -0.00585 0.0
          0.0377 -0.00585 0.0
          0.0364 -0.00585 0.0
          0.0351 -0.00585 0.0
          0.0338 -0.00585 0.0
          0.0325 -0.00585 0.0
          0.0312 -0.00585 0.0
          0.0299 -0.00585 0.0
          0.0286 -0.00585 0.0
          0.0273 -0.00585 0.0
          0.026 -0.00585 0.0
          0.0247 -0.00585 0.0
          0.0234 -0.00585 0.0
          0.0221 -0.00585 0.0
          0.0208 -0.00585 0.0
          0.0195 -0.00585 0.0
          0.0182 -0.00585 0.0
          0.0169 -0.00585 0.0
          0.0156 -0.00585 0.0
          0.0143 -0.00585 0.0
          0.013 -0.00585 0.0
          0.0117 -0.00585 0.0
          0.0104 -0.00585 0.0
          0.0091 -0.00585 0.0
          0.0078 -0.00585 0.0
          0.0065 -0.00585 0.0
          0.0052 -0.00585 0.0
          0.0039 -0.00585 0.0
          0.0026 -0.00585 0.0
          0.0013 -0.00585 0.0
          0 -0.00585 0.0
          0.039 -0.00715 0.0
          0.0377 -0.00715 0.0
          0.0364 -0.00715 0.0
          0.0351 -0.00715 0.0
          0.0338 -0.00715 0.0
          0.0325 -0.00715 0.0
          0.0312 -0.00715 0.0
          0.0299 -0.00715 0.0
          0.0286 -0.00715 0.0
          0.0273 -0.00715 0.0
          0.026 -0.00715 0.0
          0.0247 -0.00715 0.0
          0.0234 -0.00715 0.0
          0.0221 -0.00715 0.0
          0.0208 -0.00715 0.0
          0.0195 -0.00715 0.0
          0.0182 -0.00715 0.0
          0.0169 -0.00715 0.0
          0.0156 -0.00715 0.0
          0.0143 -0.00715 0.0
          0.013 -0.00715 0.0
          0.0117 -0.00715 0.0
          0.0104 -0.00715 0.0
          0.0091 -0.00715 0.0
          0.0078 -0.00715 0.0
          0.0065 -0.00715 0.0
          0.0052 -0.00715 0.0
          0.0039 -0.00715 0.0
          0.0026 -0.00715 0.0
          0.0013 -0.00715 0.0
          0 -0.00715 0.0
          0.039 -0.00845 0.0
          0.0377 -0.00845 0.0
          0.0364 -0.00845 0.0
          0.0351 -0.00845 0.0
          0.0338 -0.00845 0.0
          0.0325 -0.00845 0.0
          0.0312 -0.00845 0.0
          0.0299 -0.00845 0.0
          0.0286 -0.00845 0.0
          0.0273 -0.00845 0.0
          0.026 -0.00845 0.0
          0.0247 -0.00845 0.0
          0.0234 -0.00845 0.0
          0.0221 -0.00845 0.0
          0.0208 -0.00845 0.0
          0.0195 -0.00845 0.0
          0.0182 -0.00845 0.0
          0.0169 -0.00845 0.0
          0.0156 -0.00845 0.0
          0.0143 -0.00845 0.0
          0.013 -0.00845 0.0
          0.0117 -0.00845 0.0
          0.0104 -0.00845 0.0
          0.0091 -0.00845 0.0
          0.0078 -0.00845 0.0
          0.0065 -0.00845 0.0
          0.0052 -0.00845 0.0
          0.0039 -0.00845 0.0
          0.0026 -0.00845 0.0
          0.0013 -0.00845 0.0
          0 -0.00845 0.0
          0.039 -0.00975 0.0
          0.0377 -0.00975 0.0
          0.0364 -0.00975 0.0
          0.0351 -0.00975 0.0
          0.0338 -0.00975 0.0
          0.0325 -0.00975 0.0
          0.0312 -0.00975 0.0
          0.0299 -0.00975 0.0
          0.0286 -0.00975 0.0
          0.0273 -0.00975 0.0
          0.026 -0.00975 0.0
          0.0247 -0.00975 0.0
          0.0234 -0.00975 0.0
          0.0221 -0.00975 0.0
          0.0208 -0.00975 0.0
          0.0195 -0.00975 0.0
          0.0182 -0.00975 0.0
          0.0169 -0.00975 0.0
          0.0156 -0.00975 0.0
          0.0143 -0.00975 0.0
          0.013 -0.00975 0.0
          0.0117 -0.00975 0.0
          0.0104 -0.00975 0.0
          0.0091 -0.00975 0.0
          0.0078 -0.00975 0.0
          0.0065 -0.00975 0.0
          0.0052 -0.00975 0.0
          0.0039 -0.00975 0.0
          0.0026 -0.00975 0.0
          0.0013 -0.00975 0.0
          0 -0.00975 0.0
          0.039 -0.01105 0.0
          0.0377 -0.01105 0.0
          0.0364 -0.01105 0.0
          0.0351 -0.01105 0.0
          0.0338 -0.01105 0.0
          0.0325 -0.01105 0.0
          0.0312 -0.01105 0.0
          0.0299 -0.01105 0.0
          0.0286 -0.01105 0.0
          0.0273 -0.01105 0.0
          0.026 -0.01105 0.0
          0.0247 -0.01105 0.0
          0.0234 -0.01105 0.0
          0.0221 -0.01105 0.0
          0.0208 -0.01105 0.0
          0.0195 -0.01105 0.0
          0.0182 -0.01105 0.0
          0.0169 -0.01105 0.0
          0.0156 -0.01105 0.0
          0.0143 -0.01105 0.0
          0.013 -0.01105 0.0
          0.0117 -0.01105 0.0
          0.0104 -0.01105 0.0
          0.0091 -0.01105 0.0
          0.0078 -0.01105 0.0
          0.0065 -0.01105 0.0
          0.0052 -0.01105 0.0
          0.0039 -0.01105 0.0
          0.0026 -0.01105 0.0
          0.0013 -0.01105 0.0
          0 -0.01105 0.0
          0.039 -0.01235 0.0
          0.0377 -0.01235 0.0
          0.0364 -0.01235 0.0
          0.0351 -0.01235 0.0
          0.0338 -0.01235 0.0
          0.0325 -0.01235 0.0
          0.0312 -0.01235 0.0
          0.0299 -0.01235 0.0
          0.0286 -0.01235 0.0
          0.0273 -0.01235 0.0
          0.026 -0.01235 0.0
          0.0247 -0.01235 0.0
          0.0234 -0.01235 0.0
          0.0221 -0.01235 0.0
          0.0208 -0.01235 0.0
          0.0195 -0.01235 0.0
          0.0182 -0.01235 0.0
          0.0169 -0.01235 0.0
          0.0156 -0.01235 0.0
          0.0143 -0.01235 0.0
          0.013 -0.01235 0.0
          0.0117 -0.01235 0.0
          0.0104 -0.01235 0.0
          0.0091 -0.01235 0.0
          0.0078 -0.01235 0.0
          0.0065 -0.01235 0.0
          0.0052 -0.01235 0.0
          0.0039 -0.01235 0.0
          0.0026 -0.01235 0.0
          0.0013 -0.01235 0.0
          0 -0.01235 0.0
          0.039 -0.01365 0.0
          0.0377 -0.01365 0.0
          0.0364 -0.01365 0.0
          0.0351 -0.01365 0.0
          0.0338 -0.01365 0.0
          0.0325 -0.01365 0.0
          0.0312 -0.01365 0.0
          0.0299 -0.01365 0.0
          0.0286 -0.01365 0.0
          0.0273 -0.01365 0.0
          0.026 -0.01365 0.0
          0.0247 -0.01365 0.0
          0.0234 -0.01365 0.0
          0.0221 -0.01365 0.0
          0.0208 -0.01365 0.0
          0.0195 -0.01365 0.0
          0.0182 -0.01365 0.0
          0.0169 -0.01365 0.0
          0.0156 -0.01365 0.0
          0.0143 -0.01365 0.0
          0.013 -0.01365 0.0
          0.0117 -0.01365 0.0
          0.0104 -0.01365 0.0
          0.0091 -0.01365 0.0
          0.0078 -0.01365 0.0
          0.0065 -0.01365 0.0
          0.0052 -0.01365 0.0
          0.0039 -0.01365 0.0
          0.0026 -0.01365 0.0
          0.0013 -0.01365 0.0
          0 -0.01365 0.0
          0.039 -0.01495 0.0
          0.0377 -0.01495 0.0
          0.0364 -0.01495 0.0
          0.0351 -0.01495 0.0
          0.0338 -0.01495 0.0
          0.0325 -0.01495 0.0
          0.0312 -0.01495 0.0
          0.0299 -0.01495 0.0
          0.0286 -0.01495 0.0
          0.0273 -0.01495 0.0
          0.026 -0.01495 0.0
          0.0247 -0.01495 0.0
          0.0234 -0.01495 0.0
          0.0221 -0.01495 0.0
          0.0208 -0.01495 0.0