<?xml version="1.0"?>
<VTKFile type="UnstructuredGrid" version="0.1" byte_order="LittleEndian">
  <UnstructuredGrid>
    <Piece NumberOfPoints="961" NumberOfCells="900">
      <PointData Scalars="Temperature">
        <DataArray type="Float32" Name="Temperature" format="ascii">
          21.0023
          21.0388
          21.0766
          21.1142
          21.1458
          21.1667
          21.175
          21.1752
          21.1734
          21.1746
          21.179
          21.1831
          21.1834
          21.18
          21.1766
          21.1768
          21.1805
          21.184
          21.1838
          21.1798
          21.1755
          21.1745
          21.1765
          21.1768
          21.1694
          21.1505
          21.1222
          21.0892
          21.0574
          21.0284
          21.0017
          21.0376
          21.6244
          22.2534
          22.8838
          23.4296
          23.7719
          23.8969
          23.8712
          23.8242
          23.8441
          23.9328
          24.0154
          24.0196
          23.9479
          23.8762
          23.879
          23.9555
          24.0303
          24.0277
          23.9462
          23.8591
          23.8417
          23.8923
          23.9242
          23.814
          23.5029
          23.0108
          22.4563
          21.9245
          21.4586
          21.0276
          21.07
          22.1642
          23.3538
          24.7738
          25.9268
          26.6589
          26.7807
          26.5814
          26.3683
          26.411
          26.6948
          26.966
          26.9701
          26.7172
          26.4655
          26.4723
          26.7339
          26.9928
          26.9902
          26.7202
          26.4389
          26.4014
          26.621
          26.8282
          26.7209
          26.0447
          24.9954
          23.7295
          22.7239
          21.8546
          21.0515
          21.0968
          22.6102
          24.2699
          26.2553
          29.8252
          29.8256
          29.8257
          29.8255
          28.2701
          28.3293
          30.0354
          30.0356
          30.0356
          30.0354
          28.3985
          28.4084
          30.0719
          30.0722
          30.0721
          30.0719
          28.3665
          28.3146
          29.8881
          29.8883
          29.8882
          29.8878
          26.5479
          24.7908
          23.3918
          22.1888
          21.0717
          21.1164
          22.9307
          24.8827
          27.1948
          29.8263
          29.8264
          29.8265
          29.8265
          29.3815
          29.4514
          30.0364
          30.0364
          30.0364
          30.0364
          29.5275
          29.5396
          30.0729
          30.0729
          30.0729
          30.0729
          29.4939
          29.4327
          29.8891
          29.8891
          29.889
          29.8889
          27.5383
          25.5191
          23.888
          22.4444
          21.0873
          21.1287
          23.1253
          25.2194
          27.4637
          29.8283
          29.8284
          29.8285
          29.8285
          29.7336
          29.8035
          30.0383
          30.0383
          30.0383
          30.0383
          29.8837
          29.8959
          30.0748
          30.0749
          30.0749
          30.0748
          29.8479
          29.7866
          29.8911
          29.8911
          29.891
          29.8909
          27.8507
          25.943
          24.2116
          22.6204
          21.0982
          21.1354
          23.227
          25.3661
          27.5733
          29.8314
          29.8316
          29.8316
          29.8317
          29.8465
          29.9164
          30.0413
          30.0413
          30.0413
          30.0413
          29.9979
          30.01
          30.0778
          30.0779
          30.0779
          30.0778
          29.9613
          29.9001
          29.8942
          29.8942
          29.8941
          29.894
          27.9925
          26.1524
          24.4014
          22.7302
          21.1051
          21.1386
          23.2745
          25.4326
          27.6221
          29.8357
          29.8358
          29.8358
          29.8359
          29.8852
          29.955
          30.0454
          30.0454
          30.0454
          30.0454
          30.0368
          30.049
          30.0819
          30.0819
          30.0819
          30.0819
          30.0001
          29.9389
          29.8984
          29.8984
          29.8983
          29.8982
          28.0637
          26.2611
          24.5053
          22.7938
          21.1092
          21.1401
          23.2966
          25.4637
          27.646
          29.841
          29.8411
          29.8412
          29.8412
          29.9012
          29.971
          30.0505
          30.0505
          30.0505
          30.0505
          30.0529
          30.065
          30.087
          30.087
          30.087
          30.087
          30.0162
          29.955
          29.9037
          29.9037
          29.9036
          29.9035
          28.1024
          26.3194
          24.562
          22.8292
          21.1115
          21.1409
          23.3075
          25.4796
          27.6597
          29.8474
          29.8475
          29.8476
          29.8476
          29.911
          29.9807
          30.0567
          30.0567
          30.0567
          30.0567
          30.0625
          30.0747
          30.0932
          30.0932
          30.0932
          30.0932
          30.0258
          29.9648
          29.9101
          29.9101
          29.91
          29.9099
          28.1254
          26.3521
          24.5935
          22.8489
          21.1128
          21.1413
          23.3136
          25.4889
          27.6693
          29.8549
          29.855
          29.8551
          29.8551
          29.9195
          29.9891
          30.0639
          30.0639
          30.0639
          30.064
          30.0708
          30.083
          30.1005
          30.1005
          30.1005
          30.1005
          30.0342
          29.9732
          29.9176
          29.9175
          29.9175
          29.9174
          28.1407
          26.3717
          24.6119
          22.8602
          21.1135
          21.1415
          23.3176
          25.4958
          27.6775
          29.8636
          29.8637
          29.8637
          29.8638
          29.9283
          29.9978
          30.0723
          30.0723
          30.0723
          30.0723
          30.0795
          30.0916
          30.1088
          30.1088
          30.1088
          30.1088
          30.043
          29.9821
          29.9261
          29.9261
          29.926
          29.926
          28.1526
          26.385
          24.6235
          22.8672
          21.114
          21.1417
          23.321
          25.5019
          27.6856
          29.8733
          29.8734
          29.8735
          29.8735
          29.938
          30.0074
          30.0816
          30.0816
          30.0816
          30.0816
          30.0889
          30.1011
          30.1182
          30.1182
          30.1182
          30.1182
          30.0525
          29.9917
          29.9358
          29.9358
          29.9357
          29.9356
          28.163
          26.3952
          24.6318
          22.8721
          21.1143
          21.1419
          23.3242
          25.5079
          27.6941
          29.8841
          29.8842
          29.8843
          29.8843
          29.9488
          30.018
          30.0921
          30.0921
          30.0921
          30.0921
          30.0994
          30.1116
          30.1286
          30.1286
          30.1286
          30.1286
          30.0631
          30.0024
          29.9465
          29.9465
          29.9465
          29.9464
          28.1732
          26.4042
          24.6388
          22.876
          21.1146
          21.1421
          23.3276
          25.5142
          27.7033
          29.896
          29.8961
          29.8962
          29.8962
          29.9605
          30.0296
          30.1035
          30.1035
          30.1035
          30.1035
          30.1109
          30.1231
          30.1401
          30.1401
          30.1401
          30.1401
          30.0747
          30.0142
          29.9584
          29.9584
          29.9583
          29.9582
          28.1838
          26.4132
          24.6454
          22.8796
          21.1148
          21.1424
          23.3312
          25.5211
          27.7133
          29.909
          29.9092
          29.9092
          29.9093
          29.9734
          30.0424
          30.1161
          30.1161
          30.1161
          30.1161
          30.1235
          30.1357
          30.1527
          30.1527
          30.1527
          30.1527
          30.0874
          30.027
          29.9713
          29.9713
          29.9713
          29.9712
          28.1953
          26.4228
          24.6526
          22.8835
          21.115
          21.1426
          23.3352
          25.5288
          27.7243
          29.9232
          29.9233
          29.9234
          29.9234
          29.9874
          30.0561
          30.1297
          30.1297
          30.1297
          30.1297
          30.1371
          30.1493
          30.1663
          30.1663
          30.1663
          30.1663
          30.1012
          30.0409
          29.9854
          29.9853
          29.9853
          29.9852
          28.2082
          26.434
          24.661
          22.8882
          21.1153
          21.1429
          23.3399
          25.5375
          27.7365
          29.9384
          29.9385
          29.9386
          29.9386
          30.0024
          30.071
          30.1444
          30.1444
          30.1444
          30.1444
          30.1518
          30.164
          30.181
          30.181
          30.181
          30.181
          30.116
          30.0559
          30.0005
          30.0005
          30.0004
          30.0003
          28.2231
          26.4477
          24.6717
          22.8943
          21.1157
          21.1433
          23.3458
          25.548
          27.7504
          29.9547
          29.9548
          29.9549
          29.9549
          30.0185
          30.0869
          30.1601
          30.1601
          30.1601
          30.1601
          30.1675
          30.1797
          30.1967
          30.1967
          30.1967
          30.1967
          30.1319
          30.0719
          30.0167
          30.0167
          30.0166
          30.0165
          28.2413
          26.4659
          24.6869
          22.9032
          21.1163
          21.1439
          23.354
          25.5618
          27.767
          29.9721
          29.9723
          29.9723
          29.9724
          30.0358
          30.1039
          30.1769
          30.1769
          30.1769
          30.1769
          30.1843
          30.1965
          30.2135
          30.2135
          30.2135
          30.2135
          30.1489
          30.0891
          30.034
          30.034
          30.0339
          30.0338
          28.2649
          26.4923
          24.7101
          22.9172
          21.1172
          21.1444
          23.3672
          25.5825
          27.7888
          29.9907
          29.9908
          29.9909
          29.9909
          30.0541
          30.122
          30.1947
          30.1947
          30.1948
          30.1948
          30.2022
          30.2144
          30.2314
          30.2314
          30.2314
          30.2313
          30.1669
          30.1073
          30.0524
          30.0524
          30.0523
          30.0522
          28.2981
          26.5334
          24.7481
          22.9407
          21.1185
          21.1473
          23.3906
          25.618
          27.8212
          30.0103
          30.0104
          30.0105
          30.0105
          30.0735
          30.1411
          30.2136
          30.2136
          30.2137
          30.2137
          30.2212
          30.2334
          30.2503
          30.2503
          30.2503
          30.2503
          30.186
          30.1266
          30.0719
          30.0719
          30.0718
          30.0717
          28.3485
          26.6021
          24.8143
          22.9819
          21.1225
          21.1448
          23.4401
          25.6853
          27.8769
          30.031
          30.0311
          30.0312
          30.0313
          30.094
          30.1614
          30.2335
          30.2336
          30.2337
          30.2337
          30.2415
          30.2537
          30.2703
          30.2703
          30.2702
          30.2702
          30.2063
          30.1471
          30.0925
          30.0925
          30.0924
          30.0922
          28.4299
          26.7222
          24.9332
          23.0604
          21.1218
          21.1771
          23.5338
          25.8285
          27.9822
          30.0526
          30.0529
          30.0531
          30.0532
          30.1157
          30.1827
          30.2544
          30.2545
          30.2548
          30.2549
          30.2633
          30.2755
          30.2914
          30.2914
          30.2912
          30.2911
          30.2277
          30.1689
          30.1143
          30.1142
          30.114
          30.1138
          28.5667
          26.936
          25.1579
          23.1983
          21.1569
          21.0803
          23.7976
          26.1215
          28.1998
          30.0752
          30.0756
          30.0762
          30.0766
          30.1389
          30.2051
          30.2759
          30.2763
          30.2771
          30.2775
          30.2877
          30.2998
          30.3139
          30.3136
          30.3131
          30.3129
          30.2506
          30.1923
          30.1375
          30.1372
          30.1365
          30.1361
          28.7938
          27.3246
          25.5712
          23.5255
          21.0634
          21.6198
          24.1854
          26.8401
          28.6148
          30.0978
          30.0989
          30.1009
          30.102
          30.1645
          30.229
          30.2973
          30.2986
          30.3011
          30.3025
          30.3171
          30.3289
          30.3382
          30.3373
          30.3358
          30.3349
          30.2756
          30.2188
          30.1628
          30.1617
          30.1597
          30.1585
          29.144
          27.9854
          26.454
          23.9967
          21.6107
          19.4973
          26.3328
          28.2
          29.2801
          30.1189
          30.1214
          30.1285
          30.1311
          30.1967
          30.2545
          30.3163
          30.3196
          30.3285
          30.3318
          30.3579
          30.3684
          30.3656
          30.3636
          30.3579
          30.3559
          30.3043
          30.253
          30.1918
          30.1892
          30.1819
          30.1793
          29.6223
          28.9678
          28.0184
          26.2531
          19.4831
          30.098
          30.1107
          30.1204
          30.1295
          30.1348
          30.1405
          30.1544
          30.1822
          30.2429
          30.2852
          30.3219
          30.3391
          30.357
          30.3817
          30.4215
          30.4289
          30.4068
          30.3907
          30.3795
          30.3689
          30.3419
          30.303
          30.2431
          30.2151
          30.2008
          30.1944
          30.1878
          30.1779
          30.168
          30.158
          30.1452
          30.1031
          30.112
          30.1212
          30.1304
          30.1407
          30.1542
          30.1744
          30.2059
          30.2453
          30.2883
          30.3266
          30.3594
          30.3869
          30.4123
          30.4313
          30.4386
          30.4331
          30.4198
          30.4029
          30.3793
          30.3471
          30.3067
          30.2673
          30.2353
          30.2143
          30.1999
          30.1886
          30.1783
          30.1686
          30.1592
          30.1503
          30.1088
          30.1145
          30.1224
          30.1324
          30.1451
          30.1618
          30.1847
          30.2148
          30.2518
          30.2941
          30.3419
          30.386
          30.4191
          30.4437
          30.46
          30.4668
          30.4639
          30.4522
          30.4325
          30.4033
          30.3614
          30.3159
          30.2771
          30.2458
          30.2219
          30.2041
          30.1904
          30.1791
          30.1695
          30.1616
          30.1559
          30.1129
          30.1155
          30.123
          30.1333
          30.1466
          30.1643
          30.1877
          30.2176
          30.2541
          30.2972
          30.3509
          30.4017
          30.4366
          30.4615
          30.4774
          30.4841
          30.4815
          30.4701
          30.4496
          30.4184
          30.3704
          30.3195
          30.2803
          30.2489
          30.2244
          30.2056
          30.1912
          30.1795
          30.1699
          30.1626
          30.16
        </DataArray>
      </PointData>
      <CellData>
      </CellData>
      <Points>
        <DataArray type="Float32" NumberOfComponents="3" format="ascii">
          0.039 0.00195 0.0
          0.0377 0.00195 0.0
          0.0364 0.00195 0.0
          0.0351 0.00195 0.0
          0.0338 0.00195 0.0
          0.0325 0.00195 0.0
          0.0312 0.00195 0.0
          0.0299 0.00195 0.0
          0.0286 0.00195 0.0
          0.0273 0.00195 0.0
          0.026 0.00195 0.0
          0.0247 0.00195 0.0
          0.0234 0.00195 0.0
          0.0221 0.00195 0.0
          0.0208 0.00195 0.0
          0.0195 0.00195 0.0
          0.0182 0.00195 0.0
          0.0169 0.00195 0.0
          0.0156 0.00195 0.0
          0.0143 0.00195 0.0
          0.013 0.00195 0.0
          0.0117 0.00195 0.0
          0.0104 0.00195 0.0
          0.0091 0.00195 0.0
          0.0078 0.00195 0.0
          0.0065 0.00195 0.0
          0.0052 0.00195 0.0
          0.0039 0.00195 0.0
          0.0026 0.00195 0.0
          0.0013 0.00195 0.0
          0 0.00195 0.0
          0.039 0.00065 0.0
          0.0377 0.00065 0.0
          0.0364 0.00065 0.0
          0.0351 0.00065 0.0
          0.0338 0.00065 0.0
          0.0325 0.00065 0.0
          0.0312 0.00065 0.0
          0.0299 0.00065 0.0
          0.0286 0.00065 0.0
          0.0273 0.00065 0.0
          0.026 0.00065 0.0
          0.0247 0.00065 0.0
          0.0234 0.00065 0.0
          0.0221 0.00065 0.0
          0.0208 0.00065 0.0
          0.0195 0.00065 0.0
          0.0182 0.00065 0.0
          0.0169 0.00065 0.0
          0.0156 0.00065 0.0
          0.0143 0.00065 0.0
          0.013 0.00065 0.0
          0.0117 0.00065 0.0
          0.0104 0.00065 0.0
          0.0091 0.00065 0.0
          0.0078 0.00065 0.0
          0.0065 0.00065 0.0
          0.0052 0.00065 0.0
          0.0039 0.00065 0.0
          0.0026 0.00065 0.0
          0.0013 0.00065 0.0
          0 0.00065 0.0
          0.039 -0.00065 0.0
          0.0377 -0.00065 0.0
          0.0364 -0.00065 0.0
          0.0351 -0.00065 0.0
          0.0338 -0.00065 0.0
          0.0325 -0.00065 0.0
          0.0312 -0.00065 0.0
          0.0299 -0.00065 0.0
          0.0286 -0.00065 0.0
          0.0273 -0.00065 0.0
          0.026 -0.00065 0.0
          0.0247 -0.00065 0.0
          0.0234 -0.00065 0.0
          0.0221 -0.00065 0.0
          0.0208 -0.00065 0.0
          0.0195 -0.00065 0.0
          0.0182 -0.00065 0.0
          0.0169 -0.00065 0.0
          0.0156 -0.00065 0.0
          0.0143 -0.00065 0.0
          0.013 -0.00065 0.0
          0.0117 -0.00065 0.0
          0.0104 -0.00065 0.0
          0.0091 -0.00065 0.0
          0.0078 -0.00065 0.0
          0.0065 -0.00065 0.0
          0.0052 -0.00065 0.0
          0.0039 -0.00065 0.0
          0.0026 -0.00065 0.0
          0.0013 -0.00065 0.0
          0 -0.00065 0.0
          0.039 -0.00195 0.0
          0.0377 -0.00195 0.0
          0.0364 -0.00195 0.0
          0.0351 -0.00195 0.0
          0.0338 -0.00195 0.0
          0.0325 -0.00195 0.0
          0.0312 -0.00195 0.0
          0.0299 -0.00195 0.0
          0.0286 -0.00195 0.0
          0.0273 -0.00195 0.0
          0.026 -0.00195 0.0
          0.0247 -0.00195 0.0
          0.0234 -0.00195 0.0
          0.0221 -0.00195 0.0
          0.0208 -0.00195 0.0
          0.0195 -0.00195 0.0
          0.0182 -0.00195 0.0
          0.0169 -0.00195 0.0
          0.0156 -0.00195 0.0
          0.0143 -0.00195 0.0
          0.013 -0.00195 0.0
          0.0117 -0.00195 0.0
          0.0104 -0.00195 0.0
          0.0091 -0.00195 0.0
          0.0078 -0.00195 0.0
          0.0065 -0.00195 0.0
          0.0052 -0.00195 0.0
          0.0039 -0.00195 0.0
          0.0026 -0.00195 0.0
          0.0013 -0.00195 0.0
          0 -0.00195 0.0
          0.039 -0.00325 0.0
          0.0377 -0.00325 0.0
          0.0364 -0.00325 0.0
          0.0351 -0.00325 0.0
          0.0338 -0.00325 0.0
          0.0325 -0.00325 0.0
          0.0312 -0.00325 0.0
          0.0299 -0.00325 0.0
          0.0286 -0.00325 0.0
          0.0273 -0.00325 0.0
          0.026 -0.00325 0.0
          0.0247 -0.00325 0.0
          0.0234 -0.00325 0.0
          0.0221 -0.00325 0.0
          0.0208 -0.00325 0.0
          0.0195 -0.00325 0.0
          0.0182 -0.00325 0.0
          0.0169 -0.00325 0.0
          0.0156 -0.00325 0.0
          0.0143 -0.00325 0.0
          0.013 -0.00325 0.0
          0.0117 -0.00325 0.0
          0.0104 -0.00325 0.0
          0.0091 -0.00325 0.0
          0.0078 -0.00325 0.0
          0.0065 -0.00325 0.0
          0.0052 -0.00325 0.0
          0.0039 -0.00325 0.0
          0.0026 -0.00325 0.0
          0.0013 -0.00325 0.0
          0 -0.00325 0.0
          0.039 -0.00455 0.0
          0.0377 -0.00455 0.0
          0.0364 -0.00455 0.0
          0.0351 -0.00455 0.0
          0.0338 -0.00455 0.0
          0.0325 -0.00455 0.0
          0.0312 -0.00455 0.0
          0.0299 -0.00455 0.0
          0.0286 -0.00455 0.0
          0.0273 -0.00455 0.0
          0.026 -0.00455 0.0
          0.0247 -0.00455 0.0
          0.0234 -0.00455 0.0
          0.0221 -0.00455 0.0
          0.0208 -0.00455 0.0
          0.0195 -0.00455 0.0
          0.0182 -0.00455 0.0
          0.0169 -0.00455 0.0
          0.0156 -0.00455 0.0
          0.0143 -0.00455 0.0
          0.013 -0.00455 0.0
          0.0117 -0.00455 0.0
          0.0104 -0.00455 0.0
          0.0091 -0.00455 0.0
          0.0078 -0.00455 0.0
          0.0065 -0.00455 0.0
          0.0052 -0.00455 0.0
          0.0039 -0.00455 0.0
          0.0026 -0.00455 0.0
          0.0013 -0.00455 0.0
          0 -0.00455 0.0
          0.039 -0.00585 0.0
          0.0377 -0.00585 0.0
          0.0364 -0.00585 0.0
          0.0351 -0.00585 0.0
          0.0338 -0.00585 0.0
          0.0325 -0.00585 0.0
          0.0312 -0.00585 0.0
          0.0299 -0.00585 0.0
          0.0286 -0.00585 0.0
          0.0273 -0.00585 0.0
          0.026 -0.00585 0.0
          0.0247 -0.00585 0.0
          0.0234 -0.00585 0.0
          0.0221 -0.00585 0.0
          0.0208 -0.00585 0.0
          0.0195 -0.00585 0.0
          0.0182 -0.00585 0.0
          0.0169 -0.00585 0.0
          0.0156 -0.00585 0.0
          0.0143 -0.00585 0.0
          0.013 -0.00585 0.0
          0.0117 -0.00585 0.0
          0.0104 -0.00585 0.0
          0.0091 -0.00585 0.0
          0.0078 -0.00585 0.0
          0.0065 -0.00585 0.0
          0.0052 -0.00585 0.0
          0.0039 -0.00585 0.0
          0.0026 -0.00585 0.0
          0.0013 -0.00585 0.0
          0 -0.00585 0.0
          0.039 -0.00715 0.0
          0.0377 -0.00715 0.0
          0.0364 -0.00715 0.0
          0.0351 -0.00715 0.0
          0.0338 -0.00715 0.0
          0.0325 -0.00715 0.0
          0.0312 -0.00715 0.0
          0.0299 -0.00715 0.0
          0.0286 -0.00715 0.0
          0.0273 -0.00715 0.0
          0.026 -0.00715 0.0
          0.0247 -0.00715 0.0
          0.0234 -0.00715 0.0
          0.0221 -0.00715 0.0
          0.0208 -0.00715 0.0
          0.0195 -0.00715 0.0
          0.0182 -0.00715 0.0
          0.0169 -0.00715 0.0
          0.0156 -0.00715 0.0
          0.0143 -0.00715 0.0
          0.013 -0.00715 0.0
          0.0117 -0.00715 0.0
          0.0104 -0.00715 0.0
          0.0091 -0.00715 0.0
          0.0078 -0.00715 0.0
          0.0065 -0.00715 0.0
          0.0052 -0.00715 0.0
          0.0039 -0.00715 0.0
          0.0026 -0.00715 0.0
          0.0013 -0.00715 0.0
          0 -0.00715 0.0
          0.039 -0.00845 0.0
          0.0377 -0.00845 0.0
          0.0364 -0.00845 0.0
          0.0351 -0.00845 0.0
          0.0338 -0.00845 0.0
          0.0325 -0.00845 0.0
          0.0312 -0.00845 0.0
          0.0299 -0.00845 0.0
          0.0286 -0.00845 0.0
          0.0273 -0.00845 0.0
          0.026 -0.00845 0.0
          0.0247 -0.00845 0.0
          0.0234 -0.00845 0.0
          0.0221 -0.00845 0.0
          0.0208 -0.00845 0.0
          0.0195 -0.00845 0.0
          0.0182 -0.00845 0.0
          0.0169 -0.00845 0.0
          0.0156 -0.00845 0.0
          0.0143 -0.00845 0.0
          0.013 -0.00845 0.0
          0.0117 -0.00845 0.0
          0.0104 -0.00845 0.0
          0.0091 -0.00845 0.0
          0.0078 -0.00845 0.0
          0.0065 -0.00845 0.0
          0.0052 -0.00845 0.0
          0.0039 -0.00845 0.0
          0.0026 -0.00845 0.0
          0.0013 -0.00845 0.0
          0 -0.00845 0.0
          0.039 -0.00975 0.0
          0.0377 -0.00975 0.0
          0.0364 -0.00975 0.0
          0.0351 -0.00975 0.0
          0.0338 -0.00975 0.0
          0.0325 -0.00975 0.0
          0.0312 -0.00975 0.0
          0.0299 -0.00975 0.0
          0.0286 -0.00975 0.0
          0.0273 -0.00975 0.0
          0.026 -0.00975 0.0
          0.0247 -0.00975 0.0
          0.0234 -0.00975 0.0
          0.0221 -0.00975 0.0
          0.0208 -0.00975 0.0
          0.0195 -0.00975 0.0
          0.0182 -0.00975 0.0
          0.0169 -0.00975 0.0
          0.0156 -0.00975 0.0
          0.0143 -0.00975 0.0
          0.013 -0.00975 0.0
          0.0117 -0.00975 0.0
          0.0104 -0.00975 0.0
          0.0091 -0.00975 0.0
          0.0078 -0.00975 0.0
          0.0065 -0.00975 0.0
          0.0052 -0.00975 0.0
          0.0039 -0.00975 0.0
          0.0026 -0.00975 0.0
          0.0013 -0.00975 0.0
          0 -0.00975 0.0
          0.039 -0.01105 0.0
          0.0377 -0.01105 0.0
          0.0364 -0.01105 0.0
          0.0351 -0.01105 0.0
          0.0338 -0.01105 0.0
          0.0325 -0.01105 0.0
          0.0312 -0.01105 0.0
          0.0299 -0.01105 0.0
          0.0286 -0.01105 0.0
          0.0273 -0.01105 0.0
          0.026 -0.01105 0.0
          0.0247 -0.01105 0.0
          0.0234 -0.01105 0.0
          0.0221 -0.01105 0.0
          0.0208 -0.01105 0.0
          0.0195 -0.01105 0.0
          0.0182 -0.01105 0.0
          0.0169 -0.01105 0.0
          0.0156 -0.01105 0.0
          0.0143 -0.01105 0.0
          0.013 -0.01105 0.0
          0.0117 -0.01105 0.0
          0.0104 -0.01105 0.0
          0.0091 -0.01105 0.0
          0.0078 -0.01105 0.0
          0.0065 -0.01105 0.0
          0.0052 -0.01105 0.0
          0.0039 -0.01105 0.0
          0.0026 -0.01105 0.0
          0.0013 -0.01105 0.0
          0 -0.01105 0.0
          0.039 -0.01235 0.0
          0.0377 -0.01235 0.0
          0.0364 -0.01235 0.0
          0.0351 -0.01235 0.0
          0.0338 -0.01235 0.0
          0.0325 -0.01235 0.0
          0.0312 -0.01235 0.0
          0.0299 -0.01235 0.0
          0.0286 -0.01235 0.0
          0.0273 -0.01235 0.0
          0.026 -0.01235 0.0
          0.0247 -0.01235 0.0
          0.0234 -0.01235 0.0
          0.0221 -0.01235 0.0
          0.0208 -0.01235 0.0
          0.0195 -0.01235 0.0
          0.0182 -0.01235 0.0
          0.0169 -0.01235 0.0
          0.0156 -0.01235 0.0
          0.0143 -0.01235 0.0
          0.013 -0.01235 0.0
          0.0117 -0.01235 0.0
          0.0104 -0.01235 0.0
          0.0091 -0.01235 0.0
          0.0078 -0.01235 0.0
          0.0065 -0.01235 0.0
          0.0052 -0.01235 0.0
          0.0039 -0.01235 0.0
          0.0026 -0.01235 0.0
          0.0013 -0.01235 0.0
          0 -0.01235 0.0
          0.039 -0.01365 0.0
          0.0377 -0.01365 0.0
          0.0364 -0.01365 0.0
          0.0351 -0.01365 0.0
          0.0338 -0.01365 0.0
          0.0325 -0.01365 0.0
          0.0312 -0.01365 0.0
          0.0299 -0.01365 0.0
          0.0286 -0.01365 0.0
          0.0273 -0.01365 0.0
          0.026 -0.01365 0.0
          0.0247 -0.01365 0.0
          0.0234 -0.01365 0.0
          0.0221 -0.01365 0.0
          0.0208 -0.01365 0.0
          0.0195 -0.01365 0.0
          0.0182 -0.01365 0.0
          0.0169 -0.01365 0.0
          0.0156 -0.01365 0.0
          0.0143 -0.01365 0.0
          0.013 -0.01365 0.0
          0.0117 -0.01365 0.0
          0.0104 -0.01365 0.0
          0.0091 -0.01365 0.0
          0.0078 -0.01365 0.0
          0.0065 -0.01365 0.0
          0.0052 -0.01365 0.0
          0.0039 -0.01365 0.0
          0.0026 -0.01365 0.0
          0.0013 -0.01365 0.0
          0 -0.01365 0.0
          0.039 -0.01495 0.0
          0.0377 -0.01495 0.0
          0.0364 -0.01495 0.0
          0.0351 -0.01495 0.0
          0.0338 -0.01495 0.0
          0.0325 -0.01495 0.0
          0.0312 -0.01495 0.0
          0.0299 -0.01495 0.0
          0.0286 -0.01495 0.0
          0.0273 -0.01495 0.0
          0.026 -0.01495 0.0
          0.0247 -0.01495 0.0
          0.0234 -0.01495 0.0
          0.0221 -0.01495 0.0