<?xml version="1.0"?>
<VTKFile type="UnstructuredGrid" version="0.1" byte_order="LittleEndian">
  <UnstructuredGrid>
    <Piece NumberOfPoints="961" NumberOfCells="900">
      <PointData Scalars="Temperature">
        <DataArray type="Float32" Name="Temperature" format="ascii">
          21.0037
          21.0624
          21.1232
          21.1837
          21.2345
          21.2681
          21.2814
          21.2814
          21.2781
          21.2797
          21.2863
          21.2926
          21.2929
          21.2874
          21.2819
          21.2821
          21.2879
          21.2935
          21.2933
          21.2871
          21.2806
          21.2793
          21.2829
          21.2836
          21.2719
          21.2416
          21.1961
          21.1432
          21.0921
          21.0456
          21.0028
          21.0606
          22.0048
          23.0166
          24.0305
          24.9082
          25.458
          25.6574
          25.6124
          25.5305
          25.5545
          25.6895
          25.8174
          25.8222
          25.7065
          25.5907
          25.5935
          25.7142
          25.833
          25.83
          25.7034
          25.5702
          25.5492
          25.6359
          25.6901
          25.5149
          25.0163
          24.2273
          23.3376
          22.4843
          21.7363
          21.0443
          21.1126
          22.8733
          24.7869
          27.0704
          28.924
          30.1005
          30.2948
          29.968
          29.6129
          29.6621
          30.1019
          30.5274
          30.532
          30.1269
          29.723
          29.7298
          30.1438
          30.555
          30.552
          30.128
          29.691
          29.648
          30.0108
          30.3486
          30.1779
          29.0942
          27.4115
          25.3812
          23.7676
          22.3721
          21.0826
          21.1558
          23.5907
          26.2604
          29.4528
          35.1903
          35.1909
          35.1911
          35.1908
          32.6643
          32.7306
          35.4219
          35.4223
          35.4223
          35.422
          32.807
          32.8171
          35.459
          35.4593
          35.4593
          35.459
          32.7691
          32.7111
          35.2566
          35.2568
          35.2567
          35.2561
          29.9022
          27.0843
          24.8396
          22.9087
          21.1151
          21.1873
          24.1062
          27.2458
          30.9631
          35.1916
          35.1919
          35.192
          35.192
          34.4473
          34.5243
          35.4231
          35.4232
          35.4232
          35.4231
          34.6076
          34.6199
          35.4602
          35.4602
          35.4602
          35.4602
          34.5682
          34.5007
          35.2578
          35.2578
          35.2576
          35.2574
          31.4905
          28.2528
          25.6359
          23.3188
          21.1401
          21.2071
          24.4189
          27.7868
          31.3948
          35.1938
          35.194
          35.1941
          35.1942
          35.0103
          35.0873
          35.4251
          35.4252
          35.4252
          35.4251
          35.1747
          35.187
          35.4622
          35.4622
          35.4622
          35.4622
          35.133
          35.0656
          35.2599
          35.2599
          35.2598
          35.2596
          31.9909
          28.9324
          26.1548
          23.6011
          21.1576
          21.2178
          24.5821
          28.022
          31.5697
          35.197
          35.1972
          35.1973
          35.1974
          35.1894
          35.2663
          35.4281
          35.4282
          35.4282
          35.4282
          35.355
          35.3673
          35.4652
          35.4652
          35.4652
          35.4652
          35.3127
          35.2453
          35.2631
          35.263
          35.2629
          35.2628
          32.2171
          29.2674
          26.4588
          23.7771
          21.1688
          21.223
          24.6578
          28.1276
          31.6463
          35.2013
          35.2015
          35.2016
          35.2016
          35.2488
          35.3256
          35.4321
          35.4321
          35.4321
          35.4321
          35.4146
          35.427
          35.4692
          35.4692
          35.4692
          35.4692
          35.3722
          35.3049
          35.2673
          35.2673
          35.2672
          35.267
          32.3294
          29.4404
          26.6246
          23.8787
          21.1753
          21.2253
          24.6926
          28.1761
          31.6825
          35.2066
          35.2068
          35.2069
          35.2069
          35.2713
          35.3481
          35.4371
          35.4371
          35.4371
          35.4371
          35.437
          35.4494
          35.4742
          35.4742
          35.4742
          35.4742
          35.3946
          35.3274
          35.2726
          35.2725
          35.2724
          35.2723
          32.3889
          29.532
          26.7144
          23.9348
          21.179
          21.2264
          24.7091
          28.1996
          31.7014
          35.213
          35.2131
          35.2133
          35.2133
          35.283
          35.3596
          35.4431
          35.4431
          35.4431
          35.4431
          35.4485
          35.4608
          35.4801
          35.4801
          35.4801
          35.4801
          35.4061
          35.339
          35.2788
          35.2788
          35.2787
          35.2786
          32.4227
          29.5821
          26.7634
          23.9656
          21.181
          21.227
          24.7176
          28.2123
          31.7133
          35.2204
          35.2205
          35.2207
          35.2207
          35.2919
          35.3684
          35.45
          35.45
          35.45
          35.45
          35.4571
          35.4695
          35.4871
          35.4871
          35.4871
          35.4871
          35.4149
          35.3479
          35.2862
          35.2861
          35.286
          35.2859
          32.4436
          29.6109
          26.791
          23.9828
          21.1821
          21.2273
          24.7227
          28.2206
          31.7224
          35.2288
          35.229
          35.2291
          35.2292
          35.3008
          35.377
          35.4579
          35.4579
          35.4579
          35.4579
          35.4656
          35.4779
          35.495
          35.495
          35.495
          35.495
          35.4235
          35.3567
          35.2945
          35.2945
          35.2944
          35.2943
          32.4582
          29.6289
          26.8074
          23.993
          21.1827
          21.2276
          24.7265
          28.2272
          31.7308
          35.2383
          35.2385
          35.2386
          35.2386
          35.3102
          35.3862
          35.4668
          35.4668
          35.4668
          35.4668
          35.4746
          35.487
          35.5039
          35.5039
          35.5039
          35.5039
          35.4327
          35.3661
          35.3039
          35.3039
          35.3038
          35.3036
          32.4701
          29.6416
          26.8183
          23.9995
          21.1832
          21.2278
          24.7299
          28.2334
          31.7394
          35.2488
          35.249
          35.2491
          35.2492
          35.3206
          35.3964
          35.4766
          35.4766
          35.4766
          35.4766
          35.4845
          35.4969
          35.5137
          35.5137
          35.5137
          35.5137
          35.4428
          35.3764
          35.3143
          35.3143
          35.3142
          35.3141
          32.4809
          29.652
          26.8267
          24.0043
          21.1835
          21.228
          24.7333
          28.2398
          31.7484
          35.2604
          35.2606
          35.2607
          35.2608
          35.3319
          35.4075
          35.4875
          35.4875
          35.4875
          35.4875
          35.4954
          35.5078
          35.5246
          35.5246
          35.5246
          35.5246
          35.4539
          35.3876
          35.3258
          35.3258
          35.3257
          35.3255
          32.4919
          29.6618
          26.8343
          24.0086
          21.1837
          21.2282
          24.7369
          28.2466
          31.7583
          35.2731
          35.2733
          35.2734
          35.2734
          35.3443
          35.4196
          35.4993
          35.4993
          35.4993
          35.4993
          35.5072
          35.5196
          35.5364
          35.5364
          35.5364
          35.5364
          35.4659
          35.3999
          35.3383
          35.3383
          35.3382
          35.338
          32.5037
          29.6723
          26.8423
          24.0131
          21.184
          21.2285
          24.7411
          28.2543
          31.7691
          35.2867
          35.2869
          35.287
          35.2871
          35.3577
          35.4327
          35.5121
          35.5121
          35.5121
          35.5121
          35.52
          35.5324
          35.5492
          35.5492
          35.5492
          35.5492
          35.479
          35.4132
          35.3518
          35.3518
          35.3517
          35.3515
          32.5171
          29.6846
          26.8521
          24.0186
          21.1844
          21.2288
          24.7461
          28.2634
          31.7813
          35.3015
          35.3017
          35.3018
          35.3018
          35.3721
          35.4468
          35.5259
          35.5259
          35.5259
          35.5259
          35.5338
          35.5462
          35.563
          35.563
          35.563
          35.563
          35.493
          35.4275
          35.3664
          35.3663
          35.3662
          35.3661
          32.5333
          29.7007
          26.8654
          24.0264
          21.1849
          21.2292
          24.7528
          28.2749
          31.7957
          35.3172
          35.3174
          35.3175
          35.3176
          35.3875
          35.4619
          35.5406
          35.5406
          35.5406
          35.5406
          35.5486
          35.5609
          35.5778
          35.5778
          35.5778
          35.5778
          35.5081
          35.4428
          35.3819
          35.3819
          35.3818
          35.3817
          32.554
          29.7235
          26.8853
          24.0384
          21.1856
          21.23
          24.763
          28.2914
          31.8139
          35.3341
          35.3342
          35.3344
          35.3344
          35.404
          35.478
          35.5564
          35.5564
          35.5564
          35.5564
          35.5643
          35.5767
          35.5935
          35.5935
          35.5935
          35.5935
          35.5241
          35.4591
          35.3986
          35.3985
          35.3984
          35.3983
          32.5828
          29.7587
          26.9176
          24.0582
          21.187
          21.2307
          24.7809
          28.3183
          31.8398
          35.3519
          35.3521
          35.3522
          35.3523
          35.4215
          35.4951
          35.5731
          35.5731
          35.5731
          35.5731
          35.5811
          35.5935
          35.6102
          35.6102
          35.6102
          35.6102
          35.5412
          35.4765
          35.4162
          35.4162
          35.4161
          35.4159
          32.6261
          29.817
          26.9732
          24.0932
          21.1888
          21.235
          24.8148
          28.3684
          31.8821
          35.3708
          35.371
          35.3711
          35.3712
          35.44
          35.5132
          35.5907
          35.5907
          35.5908
          35.5908
          35.5989
          35.6113
          35.6279
          35.6279
          35.6279
          35.6279
          35.5592
          35.4949
          35.4349
          35.4349
          35.4348
          35.4346
          32.6961
          29.9184
          27.0731
          24.1559
          21.195
          21.2309
          24.8899
          28.4687
          31.9608
          35.3907
          35.3909
          35.3911
          35.3912
          35.4596
          35.5323
          35.6093
          35.6094
          35.6095
          35.6095
          35.6178
          35.6302
          35.6467
          35.6466
          35.6466
          35.6465
          35.5783
          35.5144
          35.4547
          35.4546
          35.4545
          35.4543
          32.8147
          30.1008
          27.2562
          24.2774
          21.1938
          21.2819
          25.0351
          28.6891
          32.1176
          35.4116
          35.4119
          35.4122
          35.4123
          35.4803
          35.5524
          35.6288
          35.6289
          35.6292
          35.6293
          35.6383
          35.6507
          35.6664
          35.6663
          35.6662
          35.6661
          35.5985
          35.535
          35.4756
          35.4754
          35.4751
          35.4749
          33.0207
          30.4313
          27.6065
          24.4929
          21.2492
          21.1281
          25.45
          29.1468
          32.4524
          35.4332
          35.4337
          35.4345
          35.4348
          35.5025
          35.5735
          35.6489
          35.6493
          35.6501
          35.6505
          35.6613
          35.6736
          35.6874
          35.6871
          35.6866
          35.6863
          35.62
          35.5574
          35.4978
          35.4974
          35.4966
          35.4962
          33.3689
          31.038
          28.255
          25.008
          21.101
          21.9835
          26.0611
          30.2791
          33.0997
          35.4547
          35.456
          35.4583
          35.4595
          35.527
          35.596
          35.6686
          35.67
          35.6726
          35.674
          35.6892
          35.7011
          35.7102
          35.7093
          35.7077
          35.7068
          35.6437
          35.5827
          35.5222
          35.5209
          35.5187
          35.5174
          33.9116
          32.0748
          29.6461
          25.7505
          21.967
          18.6173
          29.4623
          32.4274
          34.1432
          35.4743
          35.4772
          35.4852
          35.4881
          35.5582
          35.62
          35.6858
          35.6892
          35.6985
          35.7019
          35.7283
          35.739
          35.7362
          35.734
          35.7281
          35.7259
          35.6707
          35.6158
          35.5505
          35.5476
          35.5395
          35.5366
          34.6564
          33.6195
          32.115
          29.318
          18.5996
          35.4281
          35.4479
          35.4626
          35.4761
          35.4868
          35.495
          35.5105
          35.5399
          35.6034
          35.6483
          35.6884
          35.7071
          35.7257
          35.7504
          35.7899
          35.7974
          35.7758
          35.7599
          35.7481
          35.7361
          35.7059
          35.6647
          35.6023
          35.5728
          35.5569
          35.5481
          35.5363
          35.5222
          35.508
          35.4931
          35.4732
          35.4361
          35.4499
          35.4635
          35.477
          35.491
          35.5076
          35.5302
          35.564
          35.6057
          35.6512
          35.6917
          35.7262
          35.7546
          35.7804
          35.7996
          35.8071
          35.8015
          35.788
          35.7702
          35.7452
          35.711
          35.6684
          35.6268
          35.5926
          35.5693
          35.5519
          35.537
          35.5227
          35.5088
          35.495
          35.4812
          35.445
          35.4537
          35.4651
          35.4788
          35.4949
          35.5147
          35.5403
          35.5729
          35.6122
          35.6567
          35.7065
          35.7521
          35.7863
          35.8115
          35.8282
          35.835
          35.8319
          35.8199
          35.7993
          35.7687
          35.725
          35.6775
          35.6365
          35.6029
          35.5764
          35.5556
          35.5385
          35.5235
          35.5101
          35.4987
          35.4901
          35.4515
          35.4553
          35.4659
          35.4796
          35.4963
          35.517
          35.5432
          35.5757
          35.6145
          35.6597
          35.7153
          35.7676
          35.8036
          35.8292
          35.8454
          35.8522
          35.8495
          35.8376
          35.8162
          35.7836
          35.734
          35.6811
          35.6397
          35.6059
          35.5787
          35.557
          35.5391
          35.5239
          35.5107
          35.5003
          35.4966
        </DataArray>
      </PointData>
      <CellData>
      </CellData>
      <Points>
        <DataArray type="Float32" NumberOfComponents="3" format="ascii">
          0.039 0.00195 0.0
          0.0377 0.00195 0.0
          0.0364 0.00195 0.0
          0.0351 0.00195 0.0
          0.0338 0.00195 0.0
          0.0325 0.00195 0.0
          0.0312 0.00195 0.0
          0.0299 0.00195 0.0
          0.0286 0.00195 0.0
          0.0273 0.00195 0.0
          0.026 0.00195 0.0
          0.0247 0.00195 0.0
          0.0234 0.00195 0.0
          0.0221 0.00195 0.0
          0.0208 0.00195 0.0
          0.0195 0.00195 0.0
          0.0182 0.00195 0.0
          0.0169 0.00195 0.0
          0.0156 0.00195 0.0
          0.0143 0.00195 0.0
          0.013 0.00195 0.0
          0.0117 0.00195 0.0
          0.0104 0.00195 0.0
          0.0091 0.00195 0.0
          0.0078 0.00195 0.0
          0.0065 0.00195 0.0
          0.0052 0.00195 0.0
          0.0039 0.00195 0.0
          0.0026 0.00195 0.0
          0.0013 0.00195 0.0
          0 0.00195 0.0
          0.039 0.00065 0.0
          0.0377 0.00065 0.0
          0.0364 0.00065 0.0
          0.0351 0.00065 0.0
          0.0338 0.00065 0.0
          0.0325 0.00065 0.0
          0.0312 0.00065 0.0
          0.0299 0.00065 0.0
          0.0286 0.00065 0.0
          0.0273 0.00065 0.0
          0.026 0.00065 0.0
          0.0247 0.00065 0.0
          0.0234 0.00065 0.0
          0.0221 0.00065 0.0
          0.0208 0.00065 0.0
          0.0195 0.00065 0.0
          0.0182 0.00065 0.0
          0.0169 0.00065 0.0
          0.0156 0.00065 0.0
          0.0143 0.00065 0.0
          0.013 0.00065 0.0
          0.0117 0.00065 0.0
          0.0104 0.00065 0.0
          0.0091 0.00065 0.0
          0.0078 0.00065 0.0
          0.0065 0.00065 0.0
          0.0052 0.00065 0.0
          0.0039 0.00065 0.0
          0.0026 0.00065 0.0
          0.0013 0.00065 0.0
          0 0.00065 0.0
          0.039 -0.00065 0.0
          0.0377 -0.00065 0.0
          0.0364 -0.00065 0.0
          0.0351 -0.00065 0.0
          0.0338 -0.00065 0.0
          0.0325 -0.00065 0.0
          0.0312 -0.00065 0.0
          0.0299 -0.00065 0.0
          0.0286 -0.00065 0.0
          0.0273 -0.00065 0.0
          0.026 -0.00065 0.0
          0.0247 -0.00065 0.0
          0.0234 -0.00065 0.0
          0.0221 -0.00065 0.0
          0.0208 -0.00065 0.0
          0.0195 -0.00065 0.0
          0.0182 -0.00065 0.0
          0.0169 -0.00065 0.0
          0.0156 -0.00065 0.0
          0.0143 -0.00065 0.0
          0.013 -0.00065 0.0
          0.0117 -0.00065 0.0
          0.0104 -0.00065 0.0
          0.0091 -0.00065 0.0
          0.0078 -0.00065 0.0
          0.0065 -0.00065 0.0
          0.0052 -0.00065 0.0
          0.0039 -0.00065 0.0
          0.0026 -0.00065 0.0
          0.0013 -0.00065 0.0
          0 -0.00065 0.0
          0.039 -0.00195 0.0
          0.0377 -0.00195 0.0
          0.0364 -0.00195 0.0
          0.0351 -0.00195 0.0
          0.0338 -0.00195 0.0
          0.0325 -0.00195 0.0
          0.0312 -0.00195 0.0
          0.0299 -0.00195 0.0
          0.0286 -0.00195 0.0
          0.0273 -0.00195 0.0
          0.026 -0.00195 0.0
          0.0247 -0.00195 0.0
          0.0234 -0.00195 0.0
          0.0221 -0.00195 0.0
          0.0208 -0.00195 0.0
          0.0195 -0.00195 0.0
          0.0182 -0.00195 0.0
          0.0169 -0.00195 0.0
          0.0156 -0.00195 0.0
          0.0143 -0.00195 0.0
          0.013 -0.00195 0.0
          0.0117 -0.00195 0.0
          0.0104 -0.00195 0.0
          0.0091 -0.00195 0.0
          0.0078 -0.00195 0.0
          0.0065 -0.00195 0.0
          0.0052 -0.00195 0.0
          0.0039 -0.00195 0.0
          0.0026 -0.00195 0.0
          0.0013 -0.00195 0.0
          0 -0.00195 0.0
          0.039 -0.00325 0.0
          0.0377 -0.00325 0.0
          0.0364 -0.00325 0.0
          0.0351 -0.00325 0.0
          0.0338 -0.00325 0.0
          0.0325 -0.00325 0.0
          0.0312 -0.00325 0.0
          0.0299 -0.00325 0.0
          0.0286 -0.00325 0.0
          0.0273 -0.00325 0.0
          0.026 -0.00325 0.0
          0.0247 -0.00325 0.0
          0.0234 -0.00325 0.0
          0.0221 -0.00325 0.0
          0.0208 -0.00325 0.0
          0.0195 -0.00325 0.0
          0.0182 -0.00325 0.0
          0.0169 -0.00325 0.0
          0.0156 -0.00325 0.0
          0.0143 -0.00325 0.0
          0.013 -0.00325 0.0
          0.0117 -0.00325 0.0
          0.0104 -0.00325 0.0
          0.0091 -0.00325 0.0
          0.0078 -0.00325 0.0
          0.0065 -0.00325 0.0
          0.0052 -0.00325 0.0
          0.0039 -0.00325 0.0
          0.0026 -0.00325 0.0
          0.0013 -0.00325 0.0
          0 -0.00325 0.0
          0.039 -0.00455 0.0
          0.0377 -0.00455 0.0
          0.0364 -0.00455 0.0
          0.0351 -0.00455 0.0
          0.0338 -0.00455 0.0
          0.0325 -0.00455 0.0
          0.0312 -0.00455 0.0
          0.0299 -0.00455 0.0
          0.0286 -0.00455 0.0
          0.0273 -0.00455 0.0
          0.026 -0.00455 0.0
          0.0247 -0.00455 0.0
          0.0234 -0.00455 0.0
          0.0221 -0.00455 0.0
          0.0208 -0.00455 0.0
          0.0195 -0.00455 0.0
          0.0182 -0.00455 0.0
          0.0169 -0.00455 0.0
          0.0156 -0.00455 0.0
          0.0143 -0.00455 0.0
          0.013 -0.00455 0.0
          0.0117 -0.00455 0.0
          0.0104 -0.00455 0.0
          0.0091 -0.00455 0.0
          0.0078 -0.00455 0.0
          0.0065 -0.00455 0.0
          0.0052 -0.00455 0.0
          0.0039 -0.00455 0.0
          0.0026 -0.00455 0.0
          0.0013 -0.00455 0.0
          0 -0.00455 0.0
          0.039 -0.00585 0.0
          0.0377 -0.00585 0.0
          0.0364 -0.00585 0.0
          0.0351 -0.00585 0.0
          0.0338 -0.00585 0.0
          0.0325 -0.00585 0.0
          0.0312 -0.00585 0.0
          0.0299 -0.00585 0.0
          0.0286 -0.00585 0.0
          0.0273 -0.00585 0.0
          0.026 -0.00585 0.0
          0.0247 -0.00585 0.0
          0.0234 -0.00585 0.0
          0.0221 -0.00585 0.0
          0.0208 -0.00585 0.0
          0.0195 -0.00585 0.0
          0.0182 -0.00585 0.0
          0.0169 -0.00585 0.0
          0.0156 -0.00585 0.0
          0.0143 -0.00585 0.0
          0.013 -0.00585 0.0
          0.0117 -0.00585 0.0
          0.0104 -0.00585 0.0
          0.0091 -0.00585 0.0
          0.0078 -0.00585 0.0
          0.0065 -0.00585 0.0
          0.0052 -0.00585 0.0
          0.0039 -0.00585 0.0
          0.0026 -0.00585 0.0
          0.0013 -0.00585 0.0
          0 -0.00585 0.0
          0.039 -0.00715 0.0
          0.0377 -0.00715 0.0
          0.0364 -0.00715 0.0
          0.0351 -0.00715 0.0
          0.0338 -0.00715 0.0
          0.0325 -0.00715 0.0
          0.0312 -0.00715 0.0
          0.0299 -0.00715 0.0
          0.0286 -0.00715 0.0
          0.0273 -0.00715 0.0
          0.026 -0.00715 0.0
          0.0247 -0.00715 0.0
          0.0234 -0.00715 0.0
          0.0221 -0.00715 0.0
          0.0208 -0.00715 0.0
          0.0195 -0.00715 0.0
          0.0182 -0.00715 0.0
          0.0169 -0.00715 0.0
          0.0156 -0.00715 0.0
          0.0143 -0.00715 0.0
          0.013 -0.00715 0.0
          0.0117 -0.00715 0.0
          0.0104 -0.00715 0.0
          0.0091 -0.00715 0.0
          0.0078 -0.00715 0.0
          0.0065 -0.00715 0.0
          0.0052 -0.00715 0.0
          0.0039 -0.00715 0.0
          0.0026 -0.00715 0.0
          0.0013 -0.00715 0.0
          0 -0.00715 0.0
          0.039 -0.00845 0.0
          0.0377 -0.00845 0.0
          0.0364 -0.00845 0.0
          0.0351 -0.00845 0.0
          0.0338 -0.00845 0.0
          0.0325 -0.00845 0.0
          0.0312 -0.00845 0.0
          0.0299 -0.00845 0.0
          0.0286 -0.00845 0.0
          0.0273 -0.00845 0.0
          0.026 -0.00845 0.0
          0.0247 -0.00845 0.0
          0.0234 -0.00845 0.0
          0.0221 -0.00845 0.0
          0.0208 -0.00845 0.0
          0.0195 -0.00845 0.0
          0.0182 -0.00845 0.0
          0.0169 -0.00845 0.0
          0.0156 -0.00845 0.0
          0.0143 -0.00845 0.0
          0.013 -0.00845 0.0
          0.0117 -0.00845 0.0
          0.0104 -0.00845 0.0
          0.0091 -0.00845 0.0
          0.0078 -0.00845 0.0
          0.0065 -0.00845 0.0
          0.0052 -0.00845 0.0
          0.0039 -0.00845 0.0
          0.0026 -0.00845 0.0
          0.0013 -0.00845 0.0
          0 -0.00845 0.0
          0.039 -0.00975 0.0
          0.0377 -0.00975 0.0
          0.0364 -0.00975 0.0
          0.0351 -0.00975 0.0
          0.0338 -0.00975 0.0
          0.0325 -0.00975 0.0
          0.0312 -0.00975 0.0
          0.0299 -0.00975 0.0
          0.0286 -0.00975 0.0
          0.0273 -0.00975 0.0
          0.026 -0.00975 0.0
          0.0247 -0.00975 0.0
          0.0234 -0.00975 0.0
          0.0221 -0.00975 0.0
          0.0208 -0.00975 0.0
          0.0195 -0.00975 0.0
          0.0182 -0.00975 0.0
          0.0169 -0.00975 0.0
          0.0156 -0.00975 0.0
          0.0143 -0.00975 0.0
          0.013 -0.00975 0.0
          0.0117 -0.00975 0.0
          0.0104 -0.00975 0.0
          0.0091 -0.00975 0.0
          0.0078 -0.00975 0.0
          0.0065 -0.00975 0.0
          0.0052 -0.00975 0.0
          0.0039 -0.00975 0.0
          0.0026 -0.00975 0.0
          0.0013 -0.00975 0.0
          0 -0.00975 0.0
          0.039 -0.01105 0.0
          0.0377 -0.01105 0.0
          0.0364 -0.01105 0.0
          0.0351 -0.01105 0.0
          0.0338 -0.01105 0.0
          0.0325 -0.01105 0.0
          0.0312 -0.01105 0.0
          0.0299 -0.01105 0.0
          0.0286 -0.01105 0.0
          0.0273 -0.01105 0.0
          0.026 -0.01105 0.0
          0.0247 -0.01105 0.0
          0.0234 -0.01105 0.0
          0.0221 -0.01105 0.0
          0.0208 -0.01105 0.0
          0.0195 -0.01105 0.0
          0.0182 -0.01105 0.0
          0.0169 -0.01105 0.0
          0.0156 -0.01105 0.0
          0.0143 -0.01105 0.0
          0.013 -0.01105 0.0
          0.0117 -0.01105 0.0
          0.0104 -0.01105 0.0
          0.0091 -0.01105 0.0
          0.0078 -0.01105 0.0
          0.0065 -0.01105 0.0
          0.0052 -0.01105 0.0
          0.0039 -0.01105 0.0
          0.0026 -0.01105 0.0
          0.0013 -0.01105 0.0
          0 -0.01105 0.0
          0.039 -0.01235 0.0
          0.0377 -0.01235 0.0
          0.0364 -0.01235 0.0
          0.0351 -0.01235 0.0
          0.0338 -0.01235 0.0
          0.0325 -0.01235 0.0
          0.0312 -0.01235 0.0
          0.0299 -0.01235 0.0
          0.0286 -0.01235 0.0
          0.0273 -0.01235 0.0
          0.026 -0.01235 0.0
          0.0247 -0.01235 0.0
          0.0234 -0.01235 0.0
          0.0221 -0.01235 0.0
          0.0208 -0.01235 0.0
          0.0195 -0.01235 0.0
          0.0182 -0.01235 0.0
          0.0169 -0.01235 0.0
          0.0156 -0.01235 0.0
          0.0143 -0.01235 0.0
          0.013 -0.01235 0.0
          0.0117 -0.01235 0.0
          0.0104 -0.01235 0.0
          0.0091 -0.01235 0.0
          0.0078 -0.01235 0.0
          0.0065 -0.01235 0.0
          0.0052 -0.01235 0.0
          0.0039 -0.01235 0.0
          0.0026 -0.01235 0.0
          0.0013 -0.01235 0.0
          0 -0.01235 0.0
          0.039 -0.01365 0.0
          0.0377 -0.01365 0.0
          0.0364 -0.01365 0.0
          0.0351 -0.01365 0.0
          0.0338 -0.01365 0.0
          0.0325 -0.01365 0.0
          0.0312 -0.01365 0.0
          0.0299 -0.01365 0.0
          0.0286 -0.01365 0.0
          0.0273 -0.01365 0.0
          0.026 -0.01365 0.0
          0.0247 -0.01365 0.0
          0.0234 -0.01365 0.0
          0.0221 -0.01365 0.0
          0.0208 -0.01365 0.0
          0.0195 -0.01365 0.0
          0.0182 -0.01365 0.0
          0.0169 -0.01365 0.0
          0.0156 -0.01365 0.0
          0.0143 -0.01365 0.0
          0.013 -0.01365 0.0
          0.0117 -0.01365 0.0
          0.0104 -0.01365 0.0
          0.0091 -0.01365 0.0
          0.0078 -0.01365 0.0
          0.0065 -0.01365 0.0
          0.0052 -0.01365 0.0
          0.0039 -0.01365 0.0
          0.0026 -0.01365 0.0
          0.0013 -0.01365 0.0
          0 -0.01365 0.0
          0.039 -0.01495 0.0
          0.0377 -0.01495 0.0
          0.0364 -0.01495 0.0
          0.0351 -0.01495 0.0
          0.0338 -0.01495 0.0
          0.0325 -0.01495 0.0
          0.0312 -0.01495 0.0
          0.0299 -0.01495 0.0
          0.0286 -0.01495 0.0
          0.0273 -0.01495 0.0
          0.026 -0.01495 0.0
          0.0247 -0.01495 0.0
          0.0234 -0.01495 0.0
          0.0221 -0.01495 0.0
          0.0208 -0.01495 0.0