<?xml version="1.0"?>
<VTKFile type="UnstructuredGrid" version="0.1" byte_order="LittleEndian">
  <UnstructuredGrid>
    <Piece NumberOfPoints="961" NumberOfCells="900">
      <PointData Scalars="Temperature">
        <DataArray type="Float32" Name="Temperature" format="ascii">
          21.0023
          21.0385
          21.076
          21.1132
          21.1446
          21.1653
          21.1736
          21.1737
          21.172
          21.1732
          21.1776
          21.1816
          21.1819
          21.1786
          21.1752
          21.1754
          21.179
          21.1825
          21.1824
          21.1784
          21.1741
          21.173
          21.1751
          21.1754
          21.1681
          21.1493
          21.1212
          21.0885
          21.0569
          21.0281
          21.0017
          21.0373
          21.6193
          22.2431
          22.8683
          23.4096
          23.7491
          23.8731
          23.8476
          23.8011
          23.8209
          23.909
          23.991
          23.9953
          23.9241
          23.853
          23.8558
          23.9317
          24.0059
          24.0033
          23.9224
          23.8359
          23.8186
          23.8687
          23.9003
          23.791
          23.4824
          22.9944
          22.4443
          21.9169
          21.4548
          21.0274
          21.0694
          22.1546
          23.3344
          24.7427
          25.8862
          26.6124
          26.7332
          26.5356
          26.3244
          26.3671
          26.6487
          26.9178
          26.922
          26.6711
          26.4215
          26.4282
          26.6878
          26.9446
          26.942
          26.6741
          26.3949
          26.3575
          26.5751
          26.7806
          26.6741
          26.0035
          24.9627
          23.7072
          22.7098
          21.8476
          21.051
          21.096
          22.5969
          24.2429
          26.2121
          29.7527
          29.7531
          29.7532
          29.753
          28.2106
          28.2698
          29.9626
          29.9628
          29.9628
          29.9626
          28.3389
          28.3488
          29.9991
          29.9993
          29.9993
          29.9991
          28.307
          28.2552
          29.8155
          29.8157
          29.8156
          29.8152
          26.5026
          24.7598
          23.3722
          22.1791
          21.0711
          21.1154
          22.9148
          24.8507
          27.1438
          29.7537
          29.7539
          29.754
          29.754
          29.313
          29.3828
          29.9635
          29.9636
          29.9636
          29.9635
          29.4588
          29.4709
          30
          30.0001
          30.0001
          30
          29.4253
          29.3641
          29.8165
          29.8165
          29.8164
          29.8163
          27.4848
          25.4822
          23.8644
          22.4325
          21.0866
          21.1277
          23.1078
          25.1847
          27.4105
          29.7557
          29.7559
          29.756
          29.756
          29.6622
          29.7321
          29.9655
          29.9655
          29.9655
          29.9655
          29.8121
          29.8243
          30.002
          30.002
          30.002
          30.002
          29.7764
          29.7152
          29.8185
          29.8185
          29.8184
          29.8183
          27.7947
          25.9026
          24.1853
          22.6071
          21.0974
          21.1343
          23.2087
          25.3302
          27.5192
          29.7589
          29.759
          29.7591
          29.7591
          29.7743
          29.8441
          29.9685
          29.9685
          29.9685
          29.9685
          29.9254
          29.9376
          30.005
          30.005
          30.005
          30.005
          29.889
          29.8278
          29.8216
          29.8216
          29.8215
          29.8214
          27.9354
          26.1103
          24.3735
          22.716
          21.1043
          21.1375
          23.2557
          25.3961
          27.5676
          29.7631
          29.7632
          29.7633
          29.7633
          29.8126
          29.8824
          29.9725
          29.9725
          29.9725
          29.9725
          29.9641
          29.9762
          30.0091
          30.0091
          30.0091
          30.0091
          29.9275
          29.8664
          29.8258
          29.8258
          29.8257
          29.8256
          28.006
          26.2181
          24.4766
          22.7791
          21.1083
          21.139
          23.2777
          25.427
          27.5915
          29.7684
          29.7685
          29.7686
          29.7686
          29.8286
          29.8983
          29.9777
          29.9777
          29.9777
          29.9777
          29.9801
          29.9922
          30.0142
          30.0142
          30.0142
          30.0142
          29.9434
          29.8824
          29.8311
          29.8311
          29.831
          29.8309
          28.0444
          26.2759
          24.5329
          22.8142
          21.1106
          21.1397
          23.2886
          25.4428
          27.605
          29.7748
          29.775
          29.775
          29.7751
          29.8383
          29.9079
          29.9839
          29.9839
          29.9839
          29.9839
          29.9897
          30.0018
          30.0204
          30.0204
          30.0204
          30.0204
          29.9531
          29.8921
          29.8375
          29.8374
          29.8374
          29.8373
          28.0673
          26.3084
          24.5642
          22.8338
          21.1119
          21.1401
          23.2946
          25.4521
          27.6146
          29.7824
          29.7825
          29.7826
          29.7826
          29.8468
          29.9163
          29.9911
          29.9911
          29.9911
          29.9911
          29.998
          30.0102
          30.0276
          30.0276
          30.0276
          30.0276
          29.9615
          29.9006
          29.845
          29.8449
          29.8449
          29.8448
          28.0825
          26.3279
          24.5824
          22.845
          21.1126
          21.1404
          23.2986
          25.459
          27.6228
          29.791
          29.7911
          29.7912
          29.7912
          29.8557
          29.9251
          29.9994
          29.9994
          29.9994
          29.9994
          30.0066
          30.0188
          30.036
          30.036
          30.036
          30.036
          29.9702
          29.9094
          29.8535
          29.8535
          29.8534
          29.8534
          28.0943
          26.3411
          24.594
          22.852
          21.1131
          21.1406
          23.302
          25.465
          27.6309
          29.8007
          29.8008
          29.8009
          29.8009
          29.8654
          29.9347
          30.0088
          30.0088
          30.0088
          30.0088
          30.0161
          30.0283
          30.0453
          30.0453
          30.0453
          30.0453
          29.9798
          29.9191
          29.8632
          29.8632
          29.8631
          29.863
          28.1047
          26.3513
          24.6023
          22.8568
          21.1134
          21.1408
          23.3052
          25.471
          27.6394
          29.8116
          29.8117
          29.8117
          29.8118
          29.8761
          29.9453
          30.0192
          30.0192
          30.0192
          30.0192
          30.0266
          30.0388
          30.0558
          30.0558
          30.0558
          30.0558
          29.9904
          29.9298
          29.874
          29.8739
          29.8739
          29.8738
          28.1149
          26.3603
          24.6092
          22.8607
          21.1136
          21.141
          23.3085
          25.4774
          27.6486
          29.8235
          29.8236
          29.8237
          29.8237
          29.8879
          29.9569
          30.0307
          30.0307
          30.0307
          30.0307
          30.0381
          30.0503
          30.0673
          30.0673
          30.0673
          30.0673
          30.002
          29.9415
          29.8858
          29.8858
          29.8857
          29.8856
          28.1255
          26.3693
          24.6158
          22.8644
          21.1139
          21.1412
          23.3122
          25.4843
          27.6586
          29.8365
          29.8366
          29.8367
          29.8367
          29.9008
          29.9696
          30.0433
          30.0433
          30.0433
          30.0433
          30.0507
          30.0628
          30.0799
          30.0799
          30.0799
          30.0799
          30.0147
          29.9543
          29.8988
          29.8987
          29.8987
          29.8986
          28.137
          26.3789
          24.623
          22.8683
          21.1141
          21.1414
          23.3162
          25.4919
          27.6696
          29.8506
          29.8508
          29.8508
          29.8509
          29.9147
          29.9834
          30.0569
          30.0569
          30.0569
          30.0569
          30.0643
          30.0765
          30.0935
          30.0935
          30.0935
          30.0935
          30.0285
          29.9682
          29.9128
          29.9128
          29.9127
          29.9126
          28.1499
          26.39
          24.6313
          22.8729
          21.1144
          21.1417
          23.3209
          25.5006
          27.6818
          29.8659
          29.866
          29.8661
          29.8661
          29.9298
          29.9983
          30.0716
          30.0716
          30.0716
          30.0716
          30.079
          30.0912
          30.1082
          30.1082
          30.1082
          30.1082
          30.0433
          29.9832
          29.9279
          29.9279
          29.9278
          29.9278
          28.1648
          26.4037
          24.6421
          22.879
          21.1148
          21.1421
          23.3268
          25.5111
          27.6956
          29.8822
          29.8823
          29.8824
          29.8824
          29.9459
          30.0142
          30.0873
          30.0873
          30.0873
          30.0873
          30.0947
          30.1069
          30.1239
          30.1239
          30.1239
          30.1239
          30.0592
          29.9993
          29.9441
          29.9441
          29.9441
          29.944
          28.183
          26.4219
          24.6572
          22.8879
          21.1153
          21.1427
          23.335
          25.5249
          27.7122
          29.8996
          29.8997
          29.8998
          29.8998
          29.9632
          30.0313
          30.1041
          30.1041
          30.1042
          30.1042
          30.1115
          30.1237
          30.1407
          30.1407
          30.1407
          30.1407
          30.0762
          30.0164
          29.9615
          29.9614
          29.9614
          29.9613
          28.2065
          26.4481
          24.6802
          22.9017
          21.1163
          21.1433
          23.3481
          25.5455
          27.734
          29.9182
          29.9183
          29.9184
          29.9184
          29.9815
          30.0493
          30.122
          30.122
          30.122
          30.122
          30.1295
          30.1417
          30.1586
          30.1586
          30.1586
          30.1586
          30.0942
          30.0347
          29.9799
          29.9799
          29.9798
          29.9797
          28.2396
          26.489
          24.718
          22.9252
          21.1175
          21.1461
          23.3714
          25.5808
          27.7663
          29.9378
          29.9379
          29.938
          29.938
          30.0009
          30.0685
          30.1409
          30.1409
          30.141
          30.141
          30.1485
          30.1607
          30.1776
          30.1776
          30.1775
          30.1775
          30.1134
          30.054
          29.9994
          29.9994
          29.9993
          29.9992
          28.2897
          26.5573
          24.7838
          22.9661
          21.1215
          21.1437
          23.4205
          25.6476
          27.8217
          29.9585
          29.9586
          29.9587
          29.9588
          30.0214
          30.0887
          30.1608
          30.1609
          30.161
          30.161
          30.1688
          30.181
          30.1976
          30.1976
          30.1975
          30.1975
          30.1336
          30.0745
          30.02
          30.02
          30.0199
          30.0197
          28.3706
          26.6765
          24.9018
          23.0439
          21.1208
          21.1757
          23.5135
          25.7898
          27.9262
          29.9802
          29.9804
          29.9806
          29.9808
          30.0431
          30.11
          30.1817
          30.1818
          30.1821
          30.1822
          30.1907
          30.2028
          30.2188
          30.2187
          30.2185
          30.2184
          30.1551
          30.0963
          30.0418
          30.0417
          30.0415
          30.0413
          28.5065
          26.8887
          25.1248
          23.1807
          21.1557
          21.0796
          23.7753
          26.0806
          28.1423
          30.0027
          30.0031
          30.0038
          30.0041
          30.0664
          30.1325
          30.2033
          30.2037
          30.2045
          30.2049
          30.2151
          30.2271
          30.2412
          30.241
          30.2405
          30.2402
          30.178
          30.1198
          30.065
          30.0647
          30.064
          30.0636
          28.7319
          27.2744
          25.5349
          23.5055
          21.0629
          21.6149
          24.16
          26.7936
          28.5542
          30.0253
          30.0265
          30.0284
          30.0295
          30.092
          30.1564
          30.2246
          30.226
          30.2285
          30.2298
          30.2445
          30.2562
          30.2655
          30.2647
          30.2631
          30.2622
          30.203
          30.1463
          30.0903
          30.0892
          30.0872
          30.086
          29.0796
          27.9301
          26.4109
          23.973
          21.6059
          19.5092
          26.2904
          28.1428
          29.2143
          30.0464
          30.049
          30.0561
          30.0586
          30.1242
          30.182
          30.2437
          30.247
          30.2559
          30.2592
          30.2853
          30.2958
          30.293
          30.291
          30.2853
          30.2832
          30.2317
          30.1805
          30.1194
          30.1168
          30.1095
          30.1068
          29.5543
          28.9049
          27.963
          26.2116
          19.495
          30.026
          30.0385
          30.0482
          30.0572
          30.0625
          30.0681
          30.082
          30.1097
          30.1704
          30.2127
          30.2493
          30.2666
          30.2844
          30.3091
          30.3489
          30.3563
          30.3342
          30.3181
          30.3069
          30.2963
          30.2693
          30.2305
          30.1706
          30.1426
          30.1283
          30.122
          30.1155
          30.1056
          30.0958
          30.0859
          30.0732
          30.031
          30.0398
          30.0489
          30.0581
          30.0684
          30.0818
          30.102
          30.1334
          30.1728
          30.2158
          30.254
          30.2868
          30.3143
          30.3397
          30.3587
          30.366
          30.3605
          30.3472
          30.3303
          30.3067
          30.2746
          30.2342
          30.1949
          30.1628
          30.1418
          30.1275
          30.1163
          30.1061
          30.0963
          30.0871
          30.0782
          30.0366
          30.0423
          30.0501
          30.0601
          30.0727
          30.0894
          30.1123
          30.1423
          30.1793
          30.2216
          30.2693
          30.3134
          30.3465
          30.3711
          30.3874
          30.3942
          30.3913
          30.3797
          30.3599
          30.3307
          30.2889
          30.2433
          30.2046
          30.1733
          30.1495
          30.1318
          30.1181
          30.1068
          30.0972
          30.0894
          30.0838
          30.0407
          30.0433
          30.0508
          30.061
          30.0743
          30.0919
          30.1152
          30.1452
          30.1816
          30.2246
          30.2784
          30.3292
          30.3641
          30.3889
          30.4048
          30.4115
          30.409
          30.3975
          30.377
          30.3458
          30.2979
          30.247
          30.2079
          30.1764
          30.152
          30.1333
          30.1188
          30.1072
          30.0977
          30.0904
          30.0879
        </DataArray>
      </PointData>
      <CellData>
      </CellData>
      <Points>
        <DataArray type="Float32" NumberOfComponents="3" format="ascii">
          0.039 0.00195 0.0
          0.0377 0.00195 0.0
          0.0364 0.00195 0.0
          0.0351 0.00195 0.0
          0.0338 0.00195 0.0
          0.0325 0.00195 0.0
          0.0312 0.00195 0.0
          0.0299 0.00195 0.0
          0.0286 0.00195 0.0
          0.0273 0.00195 0.0
          0.026 0.00195 0.0
          0.0247 0.00195 0.0
          0.0234 0.00195 0.0
          0.0221 0.00195 0.0
          0.0208 0.00195 0.0
          0.0195 0.00195 0.0
          0.0182 0.00195 0.0
          0.0169 0.00195 0.0
          0.0156 0.00195 0.0
          0.0143 0.00195 0.0
          0.013 0.00195 0.0
          0.0117 0.00195 0.0
          0.0104 0.00195 0.0
          0.0091 0.00195 0.0
          0.0078 0.00195 0.0
          0.0065 0.00195 0.0
          0.0052 0.00195 0.0
          0.0039 0.00195 0.0
          0.0026 0.00195 0.0
          0.0013 0.00195 0.0
          0 0.00195 0.0
          0.039 0.00065 0.0
          0.0377 0.00065 0.0
          0.0364 0.00065 0.0
          0.0351 0.00065 0.0
          0.0338 0.00065 0.0
          0.0325 0.00065 0.0
          0.0312 0.00065 0.0
          0.0299 0.00065 0.0
          0.0286 0.00065 0.0
          0.0273 0.00065 0.0
          0.026 0.00065 0.0
          0.0247 0.00065 0.0
          0.0234 0.00065 0.0
          0.0221 0.00065 0.0
          0.0208 0.00065 0.0
          0.0195 0.00065 0.0
          0.0182 0.00065 0.0
          0.0169 0.00065 0.0
          0.0156 0.00065 0.0
          0.0143 0.00065 0.0
          0.013 0.00065 0.0
          0.0117 0.00065 0.0
          0.0104 0.00065 0.0
          0.0091 0.00065 0.0
          0.0078 0.00065 0.0
          0.0065 0.00065 0.0
          0.0052 0.00065 0.0
          0.0039 0.00065 0.0
          0.0026 0.00065 0.0
          0.0013 0.00065 0.0
          0 0.00065 0.0
          0.039 -0.00065 0.0
          0.0377 -0.00065 0.0
          0.0364 -0.00065 0.0
          0.0351 -0.00065 0.0
          0.0338 -0.00065 0.0
          0.0325 -0.00065 0.0
          0.0312 -0.00065 0.0
          0.0299 -0.00065 0.0
          0.0286 -0.00065 0.0
          0.0273 -0.00065 0.0
          0.026 -0.00065 0.0
          0.0247 -0.00065 0.0
          0.0234 -0.00065 0.0
          0.0221 -0.00065 0.0
          0.0208 -0.00065 0.0
          0.0195 -0.00065 0.0
          0.0182 -0.00065 0.0
          0.0169 -0.00065 0.0
          0.0156 -0.00065 0.0
          0.0143 -0.00065 0.0
          0.013 -0.00065 0.0
          0.0117 -0.00065 0.0
          0.0104 -0.00065 0.0
          0.0091 -0.00065 0.0
          0.0078 -0.00065 0.0
          0.0065 -0.00065 0.0
          0.0052 -0.00065 0.0
          0.0039 -0.00065 0.0
          0.0026 -0.00065 0.0
          0.0013 -0.00065 0.0
          0 -0.00065 0.0
          0.039 -0.00195 0.0
          0.0377 -0.00195 0.0
          0.0364 -0.00195 0.0
          0.0351 -0.00195 0.0
          0.0338 -0.00195 0.0
          0.0325 -0.00195 0.0
          0.0312 -0.00195 0.0
          0.0299 -0.00195 0.0
          0.0286 -0.00195 0.0
          0.0273 -0.00195 0.0
          0.026 -0.00195 0.0
          0.0247 -0.00195 0.0
          0.0234 -0.00195 0.0
          0.0221 -0.00195 0.0
          0.0208 -0.00195 0.0
          0.0195 -0.00195 0.0
          0.0182 -0.00195 0.0
          0.0169 -0.00195 0.0
          0.0156 -0.00195 0.0
          0.0143 -0.00195 0.0
          0.013 -0.00195 0.0
          0.0117 -0.00195 0.0
          0.0104 -0.00195 0.0
          0.0091 -0.00195 0.0
          0.0078 -0.00195 0.0
          0.0065 -0.00195 0.0
          0.0052 -0.00195 0.0
          0.0039 -0.00195 0.0
          0.0026 -0.00195 0.0
          0.0013 -0.00195 0.0
          0 -0.00195 0.0
          0.039 -0.00325 0.0
          0.0377 -0.00325 0.0
          0.0364 -0.00325 0.0
          0.0351 -0.00325 0.0
          0.0338 -0.00325 0.0
          0.0325 -0.00325 0.0
          0.0312 -0.00325 0.0
          0.0299 -0.00325 0.0
          0.0286 -0.00325 0.0
          0.0273 -0.00325 0.0
          0.026 -0.00325 0.0
          0.0247 -0.00325 0.0
          0.0234 -0.00325 0.0
          0.0221 -0.00325 0.0
          0.0208 -0.00325 0.0
          0.0195 -0.00325 0.0
          0.0182 -0.00325 0.0
          0.0169 -0.00325 0.0
          0.0156 -0.00325 0.0
          0.0143 -0.00325 0.0
          0.013 -0.00325 0.0
          0.0117 -0.00325 0.0
          0.0104 -0.00325 0.0
          0.0091 -0.00325 0.0
          0.0078 -0.00325 0.0
          0.0065 -0.00325 0.0
          0.0052 -0.00325 0.0
          0.0039 -0.00325 0.0
          0.0026 -0.00325 0.0
          0.0013 -0.00325 0.0
          0 -0.00325 0.0
          0.039 -0.00455 0.0
          0.0377 -0.00455 0.0
          0.0364 -0.00455 0.0
          0.0351 -0.00455 0.0
          0.0338 -0.00455 0.0
          0.0325 -0.00455 0.0
          0.0312 -0.00455 0.0
          0.0299 -0.00455 0.0
          0.0286 -0.00455 0.0
          0.0273 -0.00455 0.0
          0.026 -0.00455 0.0
          0.0247 -0.00455 0.0
          0.0234 -0.00455 0.0
          0.0221 -0.00455 0.0
          0.0208 -0.00455 0.0
          0.0195 -0.00455 0.0
          0.0182 -0.00455 0.0
          0.0169 -0.00455 0.0
          0.0156 -0.00455 0.0
          0.0143 -0.00455 0.0
          0.013 -0.00455 0.0
          0.0117 -0.00455 0.0
          0.0104 -0.00455 0.0
          0.0091 -0.00455 0.0
          0.0078 -0.00455 0.0
          0.0065 -0.00455 0.0
          0.0052 -0.00455 0.0
          0.0039 -0.00455 0.0
          0.0026 -0.00455 0.0
          0.0013 -0.00455 0.0
          0 -0.00455 0.0
          0.039 -0.00585 0.0
          0.0377 -0.00585 0.0
          0.0364 -0.00585 0.0
          0.0351 -0.00585 0.0
          0.0338 -0.00585 0.0
          0.0325 -0.00585 0.0
          0.0312 -0.00585 0.0
          0.0299 -0.00585 0.0
          0.0286 -0.00585 0.0
          0.0273 -0.00585 0.0
          0.026 -0.00585 0.0
          0.0247 -0.00585 0.0
          0.0234 -0.00585 0.0
          0.0221 -0.00585 0.0
          0.0208 -0.00585 0.0
          0.0195 -0.00585 0.0
          0.0182 -0.00585 0.0
          0.0169 -0.00585 0.0
          0.0156 -0.00585 0.0
          0.0143 -0.00585 0.0
          0.013 -0.00585 0.0
          0.0117 -0.00585 0.0
          0.0104 -0.00585 0.0
          0.0091 -0.00585 0.0
          0.0078 -0.00585 0.0
          0.0065 -0.00585 0.0
          0.0052 -0.00585 0.0
          0.0039 -0.00585 0.0
          0.0026 -0.00585 0.0
          0.0013 -0.00585 0.0
          0 -0.00585 0.0
          0.039 -0.00715 0.0
          0.0377 -0.00715 0.0
          0.0364 -0.00715 0.0
          0.0351 -0.00715 0.0
          0.0338 -0.00715 0.0
          0.0325 -0.00715 0.0
          0.0312 -0.00715 0.0
          0.0299 -0.00715 0.0
          0.0286 -0.00715 0.0
          0.0273 -0.00715 0.0
          0.026 -0.00715 0.0
          0.0247 -0.00715 0.0
          0.0234 -0.00715 0.0
          0.0221 -0.00715 0.0
          0.0208 -0.00715 0.0
          0.0195 -0.00715 0.0
          0.0182 -0.00715 0.0
          0.0169 -0.00715 0.0
          0.0156 -0.00715 0.0
          0.0143 -0.00715 0.0
          0.013 -0.00715 0.0
          0.0117 -0.00715 0.0
          0.0104 -0.00715 0.0
          0.0091 -0.00715 0.0
          0.0078 -0.00715 0.0
          0.0065 -0.00715 0.0
          0.0052 -0.00715 0.0
          0.0039 -0.00715 0.0
          0.0026 -0.00715 0.0
          0.0013 -0.00715 0.0
          0 -0.00715 0.0
          0.039 -0.00845 0.0
          0.0377 -0.00845 0.0
          0.0364 -0.00845 0.0
          0.0351 -0.00845 0.0
          0.0338 -0.00845 0.0
          0.0325 -0.00845 0.0
          0.0312 -0.00845 0.0
          0.0299 -0.00845 0.0
          0.0286 -0.00845 0.0
          0.0273 -0.00845 0.0
          0.026 -0.00845 0.0
          0.0247 -0.00845 0.0
          0.0234 -0.00845 0.0
          0.0221 -0.00845 0.0
          0.0208 -0.00845 0.0
          0.0195 -0.00845 0.0
          0.0182 -0.00845 0.0
          0.0169 -0.00845 0.0
          0.0156 -0.00845 0.0
          0.0143 -0.00845 0.0
          0.013 -0.00845 0.0
          0.0117 -0.00845 0.0
          0.0104 -0.00845 0.0
          0.0091 -0.00845 0.0
          0.0078 -0.00845 0.0
          0.0065 -0.00845 0.0
          0.0052 -0.00845 0.0
          0.0039 -0.00845 0.0
          0.0026 -0.00845 0.0
          0.0013 -0.00845 0.0
          0 -0.00845 0.0
          0.039 -0.00975 0.0
          0.0377 -0.00975 0.0
          0.0364 -0.00975 0.0
          0.0351 -0.00975 0.0
          0.0338 -0.00975 0.0
          0.0325 -0.00975 0.0
          0.0312 -0.00975 0.0
          0.0299 -0.00975 0.0
          0.0286 -0.00975 0.0
          0.0273 -0.00975 0.0
          0.026 -0.00975 0.0
          0.0247 -0.00975 0.0
          0.0234 -0.00975 0.0
          0.0221 -0.00975 0.0
          0.0208 -0.00975 0.0
          0.0195 -0.00975 0.0
          0.0182 -0.00975 0.0
          0.0169 -0.00975 0.0
          0.0156 -0.00975 0.0
          0.0143 -0.00975 0.0
          0.013 -0.00975 0.0
          0.0117 -0.00975 0.0
          0.0104 -0.00975 0.0
          0.0091 -0.00975 0.0
          0.0078 -0.00975 0.0
          0.0065 -0.00975 0.0
          0.0052 -0.00975 0.0
          0.0039 -0.00975 0.0
          0.0026 -0.00975 0.0
          0.0013 -0.00975 0.0
          0 -0.00975 0.0
          0.039 -0.01105 0.0
          0.0377 -0.01105 0.0
          0.0364 -0.01105 0.0
          0.0351 -0.01105 0.0
          0.0338 -0.01105 0.0
          0.0325 -0.01105 0.0
          0.0312 -0.01105 0.0
          0.0299 -0.01105 0.0
          0.0286 -0.01105 0.0
          0.0273 -0.01105 0.0
          0.026 -0.01105 0.0
          0.0247 -0.01105 0.0
          0.0234 -0.01105 0.0
          0.0221 -0.01105 0.0
          0.0208 -0.01105 0.0
          0.0195 -0.01105 0.0
          0.0182 -0.01105 0.0
          0.0169 -0.01105 0.0
          0.0156 -0.01105 0.0
          0.0143 -0.01105 0.0
          0.013 -0.01105 0.0
          0.0117 -0.01105 0.0
          0.0104 -0.01105 0.0
          0.0091 -0.01105 0.0
          0.0078 -0.01105 0.0
          0.0065 -0.01105 0.0
          0.0052 -0.01105 0.0
          0.0039 -0.01105 0.0
          0.0026 -0.01105 0.0
          0.0013 -0.01105 0.0
          0 -0.01105 0.0
          0.039 -0.01235 0.0
          0.0377 -0.01235 0.0
          0.0364 -0.01235 0.0
          0.0351 -0.01235 0.0
          0.0338 -0.01235 0.0
          0.0325 -0.01235 0.0
          0.0312 -0.01235 0.0
          0.0299 -0.01235 0.0
          0.0286 -0.01235 0.0
          0.0273 -0.01235 0.0
          0.026 -0.01235 0.0
          0.0247 -0.01235 0.0
          0.0234 -0.01235 0.0
          0.0221 -0.01235 0.0
          0.0208 -0.01235 0.0
          0.0195 -0.01235 0.0
          0.0182 -0.01235 0.0
          0.0169 -0.01235 0.0
          0.0156 -0.01235 0.0
          0.0143 -0.01235 0.0
          0.013 -0.01235 0.0
          0.0117 -0.01235 0.0
          0.0104 -0.01235 0.0
          0.0091 -0.01235 0.0
          0.0078 -0.01235 0.0
          0.0065 -0.01235 0.0
          0.0052 -0.01235 0.0
          0.0039 -0.01235 0.0
          0.0026 -0.01235 0.0
          0.0013 -0.01235 0.0
          0 -0.01235 0.0
          0.039 -0.01365 0.0
          0.0377 -0.01365 0.0
          0.0364 -0.01365 0.0
          0.0351 -0.01365 0.0
          0.0338 -0.01365 0.0
          0.0325 -0.01365 0.0
          0.0312 -0.01365 0.0
          0.0299 -0.01365 0.0
          0.0286 -0.01365 0.0
          0.0273 -0.01365 0.0
          0.026 -0.01365 0.0
          0.0247 -0.01365 0.0
          0.0234 -0.01365 0.0
          0.0221 -0.01365 0.0
          0.0208 -0.01365 0.0
          0.0195 -0.01365 0.0
          0.0182 -0.01365 0.0
          0.0169 -0.01365 0.0
          0.0156 -0.01365 0.0
          0.0143 -0.01365 0.0
          0.013 -0.01365 0.0
          0.0117 -0.01365 0.0
          0.0104 -0.01365 0.0
          0.0091 -0.01365 0.0
          0.0078 -0.01365 0.0
          0.0065 -0.01365 0.0
          0.0052 -0.01365 0.0
          0.0039 -0.01365 0.0
          0.0026 -0.01365 0.0
          0.0013 -0.01365 0.0
          0 -0.01365 0.0
          0.039 -0.01495 0.0
          0.0377 -0.01495 0.0
          0.0364 -0.01495 0.0
          0.0351 -0.01495 0.0
          0.0338 -0.01495 0.0
          0.0325 -0.01495 0.0
          0.0312 -0.01495 0.0
          0.0299 -0.01495 0.0
          0.0286 -0.01495 0.0
          0.0273 -0.01495 0.0
          0.026 -0.01495 0.0
          0.0247 -0.01495 0.0
          0.0234 -0.01495 0.0
          0.0221 -0.01495 0.0
          0.0208 -0.01495 0.0