<?xml version="1.0"?>
<VTKFile type="UnstructuredGrid" version="0.1" byte_order="LittleEndian">
  <UnstructuredGrid>
    <Piece NumberOfPoints="961" NumberOfCells="900">
      <PointData Scalars="Temperature">
        <DataArray type="Float32" Name="Temperature" format="ascii">
          21.0034
          21.0583
          21.115
          21.1715
          21.2189
          21.2502
          21.2627
          21.2627
          21.2597
          21.2612
          21.2674
          21.2733
          21.2736
          21.2685
          21.2634
          21.2636
          21.269
          21.2743
          21.2741
          21.2683
          21.2621
          21.2609
          21.2642
          21.2648
          21.2538
          21.2256
          21.1831
          21.1337
          21.086
          21.0425
          21.0026
          21.0565
          21.9379
          22.8824
          23.8288
          24.6481
          25.1614
          25.3478
          25.3061
          25.2304
          25.2536
          25.3805
          25.5004
          25.5051
          25.3972
          25.2892
          25.292
          25.4048
          25.516
          25.513
          25.3943
          25.2692
          25.2489
          25.3292
          25.3795
          25.2157
          24.7501
          24.0133
          23.1826
          22.3858
          21.6875
          21.0414
          21.1051
          22.7486
          24.5348
          26.6664
          28.3969
          29.4952
          29.6767
          29.3723
          29.0422
          29.0902
          29.5026
          29.9009
          29.9055
          29.5272
          29.15
          29.1569
          29.5441
          29.9284
          29.9256
          29.5286
          29.119
          29.077
          29.4145
          29.7294
          29.5699
          28.5578
          26.9865
          25.0907
          23.584
          22.2811
          21.0772
          21.1454
          23.4182
          25.9103
          28.8904
          34.2466
          34.2472
          34.2474
          34.2471
          31.8914
          31.9564
          34.4745
          34.4748
          34.4748
          34.4745
          32.0316
          32.0417
          34.5115
          34.5118
          34.5118
          34.5115
          31.9947
          31.9378
          34.3123
          34.3126
          34.3124
          34.3119
          29.3122
          26.6809
          24.585
          22.7821
          21.1074
          21.1748
          23.8994
          26.8302
          30.3003
          34.2479
          34.2481
          34.2483
          34.2483
          33.5563
          33.6321
          34.4756
          34.4757
          34.4757
          34.4756
          33.714
          33.7264
          34.5126
          34.5127
          34.5127
          34.5126
          33.6757
          33.6093
          34.3135
          34.3135
          34.3134
          34.3132
          30.7953
          27.772
          25.3285
          23.165
          21.1308
          21.1933
          24.1914
          27.3353
          30.7033
          34.2501
          34.2503
          34.2504
          34.2504
          34.0822
          34.1579
          34.4776
          34.4777
          34.4777
          34.4777
          34.244
          34.2564
          34.5146
          34.5146
          34.5146
          34.5146
          34.2034
          34.1371
          34.3156
          34.3156
          34.3155
          34.3153
          31.2627
          28.4066
          25.813
          23.4286
          21.1472
          21.2033
          24.3438
          27.5549
          30.8668
          34.2533
          34.2535
          34.2536
          34.2536
          34.2497
          34.3253
          34.4807
          34.4807
          34.4807
          34.4807
          34.4127
          34.425
          34.5176
          34.5176
          34.5176
          34.5176
          34.3714
          34.3051
          34.3187
          34.3187
          34.3186
          34.3185
          31.4741
          28.7195
          26.0969
          23.5929
          21.1576
          21.2081
          24.4145
          27.6536
          30.9385
          34.2575
          34.2577
          34.2578
          34.2579
          34.3054
          34.381
          34.4847
          34.4847
          34.4847
          34.4847
          34.4687
          34.481
          34.5216
          34.5216
          34.5216
          34.5216
          34.4273
          34.361
          34.323
          34.3229
          34.3228
          34.3227
          31.5791
          28.8812
          26.2519
          23.6879
          21.1637
          21.2103
          24.447
          27.699
          30.9725
          34.2628
          34.263
          34.2631
          34.2632
          34.3268
          34.4023
          34.4897
          34.4897
          34.4897
          34.4897
          34.49
          34.5023
          34.5266
          34.5266
          34.5266
          34.5266
          34.4486
          34.3825
          34.3282
          34.3282
          34.3281
          34.328
          31.635
          28.967
          26.3358
          23.7404
          21.1671
          21.2114
          24.4626
          27.7211
          30.9905
          34.2692
          34.2694
          34.2695
          34.2695
          34.3381
          34.4135
          34.4956
          34.4957
          34.4957
          34.4957
          34.5011
          34.5135
          34.5326
          34.5326
          34.5326
          34.5326
          34.4598
          34.3938
          34.3345
          34.3345
          34.3344
          34.3343
          31.6668
          29.014
          26.3817
          23.7692
          21.169
          21.2119
          24.4706
          27.7333
          31.002
          34.2766
          34.2768
          34.2769
          34.277
          34.347
          34.4222
          34.5026
          34.5026
          34.5026
          34.5026
          34.5097
          34.522
          34.5396
          34.5396
          34.5396
          34.5396
          34.4685
          34.4026
          34.3419
          34.3419
          34.3418
          34.3416
          31.6867
          29.0412
          26.4077
          23.7854
          21.17
          21.2122
          24.4756
          27.7413
          31.011
          34.2851
          34.2853
          34.2854
          34.2854
          34.3558
          34.4308
          34.5106
          34.5106
          34.5106
          34.5106
          34.5182
          34.5305
          34.5476
          34.5476
          34.5476
          34.5476
          34.4771
          34.4113
          34.3503
          34.3502
          34.3502
          34.35
          31.7009
          29.0583
          26.4233
          23.7949
          21.1706
          21.2125
          24.4793
          27.7478
          31.0193
          34.2946
          34.2948
          34.2949
          34.295
          34.3653
          34.4402
          34.5196
          34.5196
          34.5196
          34.5196
          34.5273
          34.5397
          34.5566
          34.5566
          34.5566
          34.5566
          34.4864
          34.4208
          34.3597
          34.3597
          34.3596
          34.3595
          31.7125
          29.0706
          26.4338
          23.8012
          21.171
          21.2127
          24.4827
          27.754
          31.0278
          34.3052
          34.3054
          34.3055
          34.3056
          34.3757
          34.4504
          34.5295
          34.5295
          34.5295
          34.5295
          34.5373
          34.5497
          34.5665
          34.5665
          34.5665
          34.5665
          34.4966
          34.4311
          34.3702
          34.3702
          34.3701
          34.3699
          31.7233
          29.0807
          26.4419
          23.8058
          21.1713
          21.2129
          24.486
          27.7604
          31.0369
          34.3169
          34.3171
          34.3172
          34.3172
          34.3872
          34.4616
          34.5405
          34.5405
          34.5405
          34.5405
          34.5483
          34.5607
          34.5775
          34.5775
          34.5775
          34.5775
          34.5078
          34.4425
          34.3817
          34.3817
          34.3816
          34.3815
          31.7342
          29.0904
          26.4493
          23.81
          21.1716
          21.2131
          24.4897
          27.7672
          31.0468
          34.3296
          34.3298
          34.3299
          34.3299
          34.3996
          34.4738
          34.5524
          34.5524
          34.5524
          34.5525
          34.5603
          34.5726
          34.5895
          34.5895
          34.5895
          34.5895
          34.5199
          34.4549
          34.3943
          34.3943
          34.3942
          34.394
          31.7459
          29.1007
          26.4572
          23.8144
          21.1719
          21.2134
          24.4938
          27.7749
          31.0577
          34.3433
          34.3435
          34.3436
          34.3437
          34.4131
          34.487
          34.5654
          34.5654
          34.5654
          34.5654
          34.5732
          34.5856
          34.6024
          34.6024
          34.6024
          34.6024
          34.5331
          34.4683
          34.4079
          34.4079
          34.4078
          34.4076
          31.7592
          29.1129
          26.4667
          23.8198
          21.1722
          21.2137
          24.4988
          27.7839
          31.0699
          34.3582
          34.3583
          34.3584
          34.3585
          34.4276
          34.5012
          34.5793
          34.5793
          34.5793
          34.5793
          34.5872
          34.5995
          34.6164
          34.6164
          34.6164
          34.6163
          34.5473
          34.4827
          34.4226
          34.4225
          34.4224
          34.4223
          31.7752
          29.1285
          26.4795
          23.8273
          21.1727
          21.2141
          24.5053
          27.7953
          31.0841
          34.374
          34.3742
          34.3743
          34.3743
          34.4432
          34.5165
          34.5942
          34.5942
          34.5943
          34.5943
          34.6021
          34.6144
          34.6313
          34.6313
          34.6313
          34.6313
          34.5625
          34.4981
          34.4383
          34.4382
          34.4381
          34.438
          31.7954
          29.1505
          26.4986
          23.8387
          21.1734
          21.2148
          24.5152
          27.8113
          31.1021
          34.391
          34.3911
          34.3912
          34.3913
          34.4598
          34.5327
          34.6102
          34.6102
          34.6102
          34.6102
          34.618
          34.6304
          34.6472
          34.6472
          34.6472
          34.6472
          34.5787
          34.5146
          34.455
          34.455
          34.4549
          34.4547
          31.8233
          29.1841
          26.5293
          23.8575
          21.1747
          21.2155
          24.5323
          27.8371
          31.1273
          34.4089
          34.4091
          34.4092
          34.4093
          34.4774
          34.55
          34.6271
          34.6271
          34.6271
          34.6271
          34.635
          34.6473
          34.6641
          34.6641
          34.6641
          34.6641
          34.5959
          34.5321
          34.4728
          34.4727
          34.4727
          34.4725
          31.8648
          29.2394
          26.5818
          23.8905
          21.1764
          21.2196
          24.5643
          27.8846
          31.1679
          34.428
          34.4281
          34.4283
          34.4283
          34.4961
          34.5683
          34.645
          34.645
          34.645
          34.645
          34.653
          34.6653
          34.6821
          34.6821
          34.682
          34.682
          34.6141
          34.5507
          34.4916
          34.4916
          34.4915
          34.4913
          31.9314
          29.3351
          26.6758
          23.9494
          21.1823
          21.2158
          24.6349
          27.9791
          31.2425
          34.448
          34.4482
          34.4484
          34.4484
          34.5158
          34.5876
          34.6638
          34.6638
          34.6639
          34.664
          34.6722
          34.6845
          34.701
          34.701
          34.7009
          34.7009
          34.6334
          34.5703
          34.5115
          34.5115
          34.5113
          34.5112
          32.0435
          29.5066
          26.8476
          24.0633
          21.1811
          21.2634
          24.771
          28.1859
          31.3902
          34.469
          34.4693
          34.4696
          34.4697
          34.5367
          34.6079
          34.6835
          34.6836
          34.6839
          34.684
          34.6929
          34.7052
          34.721
          34.7209
          34.7208
          34.7207
          34.6538
          34.5912
          34.5326
          34.5324
          34.5321
          34.5319
          32.2373
          29.8165
          27.1758
          24.2652
          21.233
          21.1197
          25.1593
          28.6147
          31.7044
          34.4907
          34.4912
          34.492
          34.4924
          34.5591
          34.6293
          34.7038
          34.7042
          34.7051
          34.7055
          34.7162
          34.7284
          34.7423
          34.742
          34.7415
          34.7412
          34.6756
          34.6137
          34.555
          34.5546
          34.5538
          34.5534
          32.5641
          30.3848
          27.7829
          24.7472
          21.0944
          21.9196
          25.7312
          29.6742
          32.3108
          34.5125
          34.5137
          34.5159
          34.5171
          34.5838
          34.652
          34.7238
          34.7252
          34.7278
          34.7292
          34.7443
          34.7562
          34.7653
          34.7644
          34.7628
          34.7619
          34.6995
          34.6393
          34.5795
          34.5783
          34.5761
          34.5748
          33.0731
          31.3555
          29.0847
          25.442
          21.9043
          18.7721
          28.9118
          31.6838
          33.2879
          34.5323
          34.5352
          34.543
          34.5458
          34.6152
          34.6762
          34.7414
          34.7448
          34.754
          34.7573
          34.7837
          34.7944
          34.7916
          34.7894
          34.7835
          34.7814
          34.7268
          34.6725
          34.608
          34.6051
          34.5972
          34.5943
          33.771
          32.8013
          31.3944
          28.7789
          18.755
          34.4906
          34.5092
          34.5229
          34.5357
          34.5454
          34.5532
          34.5684
          34.5975
          34.6605
          34.705
          34.7445
          34.763
          34.7814
          34.8061
          34.8456
          34.8531
          34.8315
          34.8155
          34.8038
          34.792
          34.7624
          34.7216
          34.6597
          34.6305
          34.6148
          34.6065
          34.5955
          34.5822
          34.5687
          34.5547
          34.5361
          34.4981
          34.511
          34.5239
          34.5366
          34.5499
          34.566
          34.5882
          34.6216
          34.6629
          34.708
          34.748
          34.7822
          34.8105
          34.8362
          34.8554
          34.8628
          34.8573
          34.8438
          34.8262
          34.8014
          34.7676
          34.7253
          34.6842
          34.6503
          34.6274
          34.6105
          34.5962
          34.5826
          34.5695
          34.5565
          34.5435
          34.5064
          34.5146
          34.5254
          34.5384
          34.5539
          34.5732
          34.5983
          34.6304
          34.6694
          34.7135
          34.7629
          34.8082
          34.8422
          34.8674
          34.884
          34.8908
          34.8878
          34.8758
          34.8553
          34.8249
          34.7816
          34.7344
          34.6938
          34.6606
          34.6346
          34.6143
          34.5978
          34.5834
          34.5707
          34.56
          34.5518
          34.5125
          34.5161
          34.5261
          34.5392
          34.5554
          34.5756
          34.6012
          34.6333
          34.6717
          34.7165
          34.7718
          34.8238
          34.8596
          34.8851
          34.9012
          34.908
          34.9053
          34.8935
          34.8722
          34.8399
          34.7906
          34.738
          34.697
          34.6636
          34.6369
          34.6157
          34.5985
          34.5838
          34.5713
          34.5614
          34.5579
        </DataArray>
      </PointData>
      <CellData>
      </CellData>
      <Points>
        <DataArray type="Float32" NumberOfComponents="3" format="ascii">
          0.039 0.00195 0.0
          0.0377 0.00195 0.0
          0.0364 0.00195 0.0
          0.0351 0.00195 0.0
          0.0338 0.00195 0.0
          0.0325 0.00195 0.0
          0.0312 0.00195 0.0
          0.0299 0.00195 0.0
          0.0286 0.00195 0.0
          0.0273 0.00195 0.0
          0.026 0.00195 0.0
          0.0247 0.00195 0.0
          0.0234 0.00195 0.0
          0.0221 0.00195 0.0
          0.0208 0.00195 0.0
          0.0195 0.00195 0.0
          0.0182 0.00195 0.0
          0.0169 0.00195 0.0
          0.0156 0.00195 0.0
          0.0143 0.00195 0.0
          0.013 0.00195 0.0
          0.0117 0.00195 0.0
          0.0104 0.00195 0.0
          0.0091 0.00195 0.0
          0.0078 0.00195 0.0
          0.0065 0.00195 0.0
          0.0052 0.00195 0.0
          0.0039 0.00195 0.0
          0.0026 0.00195 0.0
          0.0013 0.00195 0.0
          0 0.00195 0.0
          0.039 0.00065 0.0
          0.0377 0.00065 0.0
          0.0364 0.00065 0.0
          0.0351 0.00065 0.0
          0.0338 0.00065 0.0
          0.0325 0.00065 0.0
          0.0312 0.00065 0.0
          0.0299 0.00065 0.0
          0.0286 0.00065 0.0
          0.0273 0.00065 0.0
          0.026 0.00065 0.0
          0.0247 0.00065 0.0
          0.0234 0.00065 0.0
          0.0221 0.00065 0.0
          0.0208 0.00065 0.0
          0.0195 0.00065 0.0
          0.0182 0.00065 0.0
          0.0169 0.00065 0.0
          0.0156 0.00065 0.0
          0.0143 0.00065 0.0
          0.013 0.00065 0.0
          0.0117 0.00065 0.0
          0.0104 0.00065 0.0
          0.0091 0.00065 0.0
          0.0078 0.00065 0.0
          0.0065 0.00065 0.0
          0.0052 0.00065 0.0
          0.0039 0.00065 0.0
          0.0026 0.00065 0.0
          0.0013 0.00065 0.0
          0 0.00065 0.0
          0.039 -0.00065 0.0
          0.0377 -0.00065 0.0
          0.0364 -0.00065 0.0
          0.0351 -0.00065 0.0
          0.0338 -0.00065 0.0
          0.0325 -0.00065 0.0
          0.0312 -0.00065 0.0
          0.0299 -0.00065 0.0
          0.0286 -0.00065 0.0
          0.0273 -0.00065 0.0
          0.026 -0.00065 0.0
          0.0247 -0.00065 0.0
          0.0234 -0.00065 0.0
          0.0221 -0.00065 0.0
          0.0208 -0.00065 0.0
          0.0195 -0.00065 0.0
          0.0182 -0.00065 0.0
          0.0169 -0.00065 0.0
          0.0156 -0.00065 0.0
          0.0143 -0.00065 0.0
          0.013 -0.00065 0.0
          0.0117 -0.00065 0.0
          0.0104 -0.00065 0.0
          0.0091 -0.00065 0.0
          0.0078 -0.00065 0.0
          0.0065 -0.00065 0.0
          0.0052 -0.00065 0.0
          0.0039 -0.00065 0.0
          0.0026 -0.00065 0.0
          0.0013 -0.00065 0.0
          0 -0.00065 0.0
          0.039 -0.00195 0.0
          0.0377 -0.00195 0.0
          0.0364 -0.00195 0.0
          0.0351 -0.00195 0.0
          0.0338 -0.00195 0.0
          0.0325 -0.00195 0.0
          0.0312 -0.00195 0.0
          0.0299 -0.00195 0.0
          0.0286 -0.00195 0.0
          0.0273 -0.00195 0.0
          0.026 -0.00195 0.0
          0.0247 -0.00195 0.0
          0.0234 -0.00195 0.0
          0.0221 -0.00195 0.0
          0.0208 -0.00195 0.0
          0.0195 -0.00195 0.0
          0.0182 -0.00195 0.0
          0.0169 -0.00195 0.0
          0.0156 -0.00195 0.0
          0.0143 -0.00195 0.0
          0.013 -0.00195 0.0
          0.0117 -0.00195 0.0
          0.0104 -0.00195 0.0
          0.0091 -0.00195 0.0
          0.0078 -0.00195 0.0
          0.0065 -0.00195 0.0
          0.0052 -0.00195 0.0
          0.0039 -0.00195 0.0
          0.0026 -0.00195 0.0
          0.0013 -0.00195 0.0
          0 -0.00195 0.0
          0.039 -0.00325 0.0
          0.0377 -0.00325 0.0
          0.0364 -0.00325 0.0
          0.0351 -0.00325 0.0
          0.0338 -0.00325 0.0
          0.0325 -0.00325 0.0
          0.0312 -0.00325 0.0
          0.0299 -0.00325 0.0
          0.0286 -0.00325 0.0
          0.0273 -0.00325 0.0
          0.026 -0.00325 0.0
          0.0247 -0.00325 0.0
          0.0234 -0.00325 0.0
          0.0221 -0.00325 0.0
          0.0208 -0.00325 0.0
          0.0195 -0.00325 0.0
          0.0182 -0.00325 0.0
          0.0169 -0.00325 0.0
          0.0156 -0.00325 0.0
          0.0143 -0.00325 0.0
          0.013 -0.00325 0.0
          0.0117 -0.00325 0.0
          0.0104 -0.00325 0.0
          0.0091 -0.00325 0.0
          0.0078 -0.00325 0.0
          0.0065 -0.00325 0.0
          0.0052 -0.00325 0.0
          0.0039 -0.00325 0.0
          0.0026 -0.00325 0.0
          0.0013 -0.00325 0.0
          0 -0.00325 0.0
          0.039 -0.00455 0.0
          0.0377 -0.00455 0.0
          0.0364 -0.00455 0.0
          0.0351 -0.00455 0.0
          0.0338 -0.00455 0.0
          0.0325 -0.00455 0.0
          0.0312 -0.00455 0.0
          0.0299 -0.00455 0.0
          0.0286 -0.00455 0.0
          0.0273 -0.00455 0.0
          0.026 -0.00455 0.0
          0.0247 -0.00455 0.0
          0.0234 -0.00455 0.0
          0.0221 -0.00455 0.0
          0.0208 -0.00455 0.0
          0.0195 -0.00455 0.0
          0.0182 -0.00455 0.0
          0.0169 -0.00455 0.0
          0.0156 -0.00455 0.0
          0.0143 -0.00455 0.0
          0.013 -0.00455 0.0
          0.0117 -0.00455 0.0
          0.0104 -0.00455 0.0
          0.0091 -0.00455 0.0
          0.0078 -0.00455 0.0
          0.0065 -0.00455 0.0
          0.0052 -0.00455 0.0
          0.0039 -0.00455 0.0
          0.0026 -0.00455 0.0
          0.0013 -0.00455 0.0
          0 -0.00455 0.0
          0.039 -0.00585 0.0
          0.0377 -0.00585 0.0
          0.0364 -0.00585 0.0
          0.0351 -0.00585 0.0
          0.0338 -0.00585 0.0
          0.0325 -0.00585 0.0
          0.0312 -0.00585 0.0
          0.0299 -0.00585 0.0
          0.0286 -0.00585 0.0
          0.0273 -0.00585 0.0
          0.026 -0.00585 0.0
          0.0247 -0.00585 0.0
          0.0234 -0.00585 0.0
          0.0221 -0.00585 0.0
          0.0208 -0.00585 0.0
          0.0195 -0.00585 0.0
          0.0182 -0.00585 0.0
          0.0169 -0.00585 0.0
          0.0156 -0.00585 0.0
          0.0143 -0.00585 0.0
          0.013 -0.00585 0.0
          0.0117 -0.00585 0.0
          0.0104 -0.00585 0.0
          0.0091 -0.00585 0.0
          0.0078 -0.00585 0.0
          0.0065 -0.00585 0.0
          0.0052 -0.00585 0.0
          0.0039 -0.00585 0.0
          0.0026 -0.00585 0.0
          0.0013 -0.00585 0.0
          0 -0.00585 0.0
          0.039 -0.00715 0.0
          0.0377 -0.00715 0.0
          0.0364 -0.00715 0.0
          0.0351 -0.00715 0.0
          0.0338 -0.00715 0.0
          0.0325 -0.00715 0.0
          0.0312 -0.00715 0.0
          0.0299 -0.00715 0.0
          0.0286 -0.00715 0.0
          0.0273 -0.00715 0.0
          0.026 -0.00715 0.0
          0.0247 -0.00715 0.0
          0.0234 -0.00715 0.0
          0.0221 -0.00715 0.0
          0.0208 -0.00715 0.0
          0.0195 -0.00715 0.0
          0.0182 -0.00715 0.0
          0.0169 -0.00715 0.0
          0.0156 -0.00715 0.0
          0.0143 -0.00715 0.0
          0.013 -0.00715 0.0
          0.0117 -0.00715 0.0
          0.0104 -0.00715 0.0
          0.0091 -0.00715 0.0
          0.0078 -0.00715 0.0
          0.0065 -0.00715 0.0
          0.0052 -0.00715 0.0
          0.0039 -0.00715 0.0
          0.0026 -0.00715 0.0
          0.0013 -0.00715 0.0
          0 -0.00715 0.0
          0.039 -0.00845 0.0
          0.0377 -0.00845 0.0
          0.0364 -0.00845 0.0
          0.0351 -0.00845 0.0
          0.0338 -0.00845 0.0
          0.0325 -0.00845 0.0
          0.0312 -0.00845 0.0
          0.0299 -0.00845 0.0
          0.0286 -0.00845 0.0
          0.0273 -0.00845 0.0
          0.026 -0.00845 0.0
          0.0247 -0.00845 0.0
          0.0234 -0.00845 0.0
          0.0221 -0.00845 0.0
          0.0208 -0.00845 0.0
          0.0195 -0.00845 0.0
          0.0182 -0.00845 0.0
          0.0169 -0.00845 0.0
          0.0156 -0.00845 0.0
          0.0143 -0.00845 0.0
          0.013 -0.00845 0.0
          0.0117 -0.00845 0.0
          0.0104 -0.00845 0.0
          0.0091 -0.00845 0.0
          0.0078 -0.00845 0.0
          0.0065 -0.00845 0.0
          0.0052 -0.00845 0.0
          0.0039 -0.00845 0.0
          0.0026 -0.00845 0.0
          0.0013 -0.00845 0.0
          0 -0.00845 0.0
          0.039 -0.00975 0.0
          0.0377 -0.00975 0.0
          0.0364 -0.00975 0.0
          0.0351 -0.00975 0.0
          0.0338 -0.00975 0.0
          0.0325 -0.00975 0.0
          0.0312 -0.00975 0.0
          0.0299 -0.00975 0.0
          0.0286 -0.00975 0.0
          0.0273 -0.00975 0.0
          0.026 -0.00975 0.0
          0.0247 -0.00975 0.0
          0.0234 -0.00975 0.0
          0.0221 -0.00975 0.0
          0.0208 -0.00975 0.0
          0.0195 -0.00975 0.0
          0.0182 -0.00975 0.0
          0.0169 -0.00975 0.0
          0.0156 -0.00975 0.0
          0.0143 -0.00975 0.0
          0.013 -0.00975 0.0
          0.0117 -0.00975 0.0
          0.0104 -0.00975 0.0
          0.0091 -0.00975 0.0
          0.0078 -0.00975 0.0
          0.0065 -0.00975 0.0
          0.0052 -0.00975 0.0
          0.0039 -0.00975 0.0
          0.0026 -0.00975 0.0
          0.0013 -0.00975 0.0
          0 -0.00975 0.0
          0.039 -0.01105 0.0
          0.0377 -0.01105 0.0
          0.0364 -0.01105 0.0
          0.0351 -0.01105 0.0
          0.0338 -0.01105 0.0
          0.0325 -0.01105 0.0
          0.0312 -0.01105 0.0
          0.0299 -0.01105 0.0
          0.0286 -0.01105 0.0
          0.0273 -0.01105 0.0
          0.026 -0.01105 0.0
          0.0247 -0.01105 0.0
          0.0234 -0.01105 0.0
          0.0221 -0.01105 0.0
          0.0208 -0.01105 0.0
          0.0195 -0.01105 0.0
          0.0182 -0.01105 0.0
          0.0169 -0.01105 0.0
          0.0156 -0.01105 0.0
          0.0143 -0.01105 0.0
          0.013 -0.01105 0.0
          0.0117 -0.01105 0.0
          0.0104 -0.01105 0.0
          0.0091 -0.01105 0.0
          0.0078 -0.01105 0.0
          0.0065 -0.01105 0.0
          0.0052 -0.01105 0.0
          0.0039 -0.01105 0.0
          0.0026 -0.01105 0.0
          0.0013 -0.01105 0.0
          0 -0.01105 0.0
          0.039 -0.01235 0.0
          0.0377 -0.01235 0.0
          0.0364 -0.01235 0.0
          0.0351 -0.01235 0.0
          0.0338 -0.01235 0.0
          0.0325 -0.01235 0.0
          0.0312 -0.01235 0.0
          0.0299 -0.01235 0.0
          0.0286 -0.01235 0.0
          0.0273 -0.01235 0.0
          0.026 -0.01235 0.0
          0.0247 -0.01235 0.0
          0.0234 -0.01235 0.0
          0.0221 -0.01235 0.0
          0.0208 -0.01235 0.0
          0.0195 -0.01235 0.0
          0.0182 -0.01235 0.0
          0.0169 -0.01235 0.0
          0.0156 -0.01235 0.0
          0.0143 -0.01235 0.0
          0.013 -0.01235 0.0
          0.0117 -0.01235 0.0
          0.0104 -0.01235 0.0
          0.0091 -0.01235 0.0
          0.0078 -0.01235 0.0
          0.0065 -0.01235 0.0
          0.0052 -0.01235 0.0
          0.0039 -0.01235 0.0
          0.0026 -0.01235 0.0
          0.0013 -0.01235 0.0
          0 -0.01235 0.0
          0.039 -0.01365 0.0
          0.0377 -0.01365 0.0
          0.0364 -0.01365 0.0
          0.0351 -0.01365 0.0
          0.0338 -0.01365 0.0
          0.0325 -0.01365 0.0
          0.0312 -0.01365 0.0
          0.0299 -0.01365 0.0
          0.0286 -0.01365 0.0
          0.0273 -0.01365 0.0
          0.026 -0.01365 0.0
          0.0247 -0.01365 0.0
          0.0234 -0.01365 0.0
          0.0221 -0.01365 0.0
          0.0208 -0.01365 0.0
          0.0195 -0.01365 0.0
          0.0182 -0.01365 0.0
          0.0169 -0.01365 0.0
          0.0156 -0.01365 0.0
          0.0143 -0.01365 0.0
          0.013 -0.01365 0.0
          0.0117 -0.01365 0.0
          0.0104 -0.01365 0.0
          0.0091 -0.01365 0.0
          0.0078 -0.01365 0.0
          0.0065 -0.01365 0.0
          0.0052 -0.01365 0.0
          0.0039 -0.01365 0.0
          0.0026 -0.01365 0.0
          0.0013 -0.01365 0.0
          0 -0.01365 0.0
          0.039 -0.01495 0.0
          0.0377 -0.01495 0.0
          0.0364 -0.01495 0.0
          0.0351 -0.01495 0.0
          0.0338 -0.01495 0.0
          0.0325 -0.01495 0.0
          0.0312 -0.01495 0.0
          0.0299 -0.01495 0.0
          0.0286 -0.01495 0.0
          0.0273 -0.01495 0.0
          0.026 -0.01495 0.0
          0.0247 -0.01495 0.0
          0.0234 -0.01495 0.0
          0.0221 -0.01495 0.0