<?xml version="1.0"?>
<VTKFile type="UnstructuredGrid" version="0.1" byte_order="LittleEndian">
  <UnstructuredGrid>
    <Piece NumberOfPoints="961" NumberOfCells="900">
      <PointData Scalars="Temperature">
        <DataArray type="Float32" Name="Temperature" format="ascii">
          21.0019
          21.0314
          21.0619
          21.0923
          21.1179
          21.1348
          21.1416
          21.1418
          21.1404
          21.1416
          21.1453
          21.1487
          21.1489
          21.1462
          21.1435
          21.1437
          21.1467
          21.1496
          21.1494
          21.1461
          21.1425
          21.1415
          21.143
          21.1432
          21.1372
          21.1219
          21.0989
          21.0722
          21.0464
          21.023
          21.0014
          21.0304
          21.5048
          22.0132
          22.523
          22.9644
          23.2413
          23.343
          23.3233
          23.2873
          23.3059
          23.38
          23.4484
          23.4525
          23.3946
          23.3368
          23.3395
          23.4021
          23.4631
          23.4606
          23.3933
          23.3207
          23.3045
          23.3437
          23.3685
          23.2788
          23.0267
          22.6281
          22.179
          21.7484
          21.3712
          21.0223
          21.0566
          21.9411
          22.9029
          24.0512
          24.9837
          25.576
          25.6751
          25.5159
          25.3474
          25.3882
          25.6228
          25.8454
          25.8495
          25.6444
          25.4406
          25.4474
          25.661
          25.872
          25.8695
          25.648
          25.4157
          25.38
          25.5544
          25.7205
          25.6332
          25.0853
          24.2352
          23.2098
          22.3956
          21.6918
          21.0417
          21.0783
          22.3017
          23.6436
          25.2493
          28.1372
          28.1375
          28.1376
          28.1375
          26.8875
          26.9445
          28.3406
          28.3408
          28.3408
          28.3407
          27.0114
          27.0213
          28.377
          28.3772
          28.3772
          28.377
          26.9813
          26.9314
          28.199
          28.1992
          28.1991
          28.1988
          25.4926
          24.0692
          22.9363
          21.9624
          21.058
          21.0941
          22.5608
          24.1392
          26.0092
          28.1382
          28.1383
          28.1384
          28.1384
          27.7876
          27.8553
          28.3415
          28.3416
          28.3416
          28.3415
          27.9291
          27.9412
          28.3779
          28.3779
          28.3779
          28.3779
          27.8974
          27.8381
          28.1999
          28.1999
          28.1999
          28.1998
          26.2948
          24.6591
          23.3381
          22.1692
          21.0706
          21.1041
          22.7183
          24.4116
          26.2268
          28.1402
          28.1403
          28.1403
          28.1403
          28.0734
          28.1411
          28.3434
          28.3435
          28.3435
          28.3435
          28.219
          28.2311
          28.3798
          28.3798
          28.3798
          28.3798
          28.185
          28.1257
          28.2019
          28.2019
          28.2018
          28.2017
          26.548
          25.0025
          23.6002
          22.3118
          21.0795
          21.1095
          22.8007
          24.5305
          26.3159
          28.1432
          28.1433
          28.1434
          28.1434
          28.1655
          28.2332
          28.3465
          28.3465
          28.3465
          28.3465
          28.3123
          28.3245
          28.3828
          28.3828
          28.3828
          28.3828
          28.2776
          28.2184
          28.205
          28.205
          28.2049
          28.2048
          26.6633
          25.1723
          23.754
          22.4008
          21.0851
          21.1121
          22.8392
          24.5846
          26.3559
          28.1475
          28.1476
          28.1476
          28.1476
          28.1976
          28.2652
          28.3505
          28.3505
          28.3505
          28.3505
          28.3448
          28.3569
          28.3869
          28.3869
          28.3869
          28.3869
          28.3099
          28.2506
          28.2092
          28.2092
          28.2091
          28.209
          26.7216
          25.2608
          23.8385
          22.4525
          21.0884
          21.1133
          22.8574
          24.6103
          26.3761
          28.1528
          28.1529
          28.1529
          28.153
          28.2116
          28.2792
          28.3557
          28.3557
          28.3557
          28.3557
          28.3588
          28.371
          28.3921
          28.3921
          28.3921
          28.3921
          28.3239
          28.2647
          28.2145
          28.2145
          28.2144
          28.2143
          26.7537
          25.3086
          23.8848
          22.4813
          21.0903
          21.1139
          22.8665
          24.6237
          26.388
          28.1592
          28.1593
          28.1594
          28.1594
          28.2208
          28.2883
          28.362
          28.362
          28.362
          28.362
          28.3679
          28.38
          28.3984
          28.3984
          28.3984
          28.3983
          28.333
          28.2739
          28.2209
          28.2209
          28.2208
          28.2207
          26.7733
          25.3358
          23.9108
          22.4975
          21.0914
          21.1143
          22.8718
          24.6321
          26.3969
          28.1668
          28.1669
          28.1669
          28.167
          28.2291
          28.2966
          28.3693
          28.3693
          28.3693
          28.3693
          28.3761
          28.3882
          28.4057
          28.4057
          28.4057
          28.4057
          28.3413
          28.2822
          28.2284
          28.2284
          28.2284
          28.2283
          26.7869
          25.3526
          23.9263
          22.507
          21.092
          21.1145
          22.8755
          24.6385
          26.4048
          28.1755
          28.1756
          28.1756
          28.1756
          28.238
          28.3054
          28.3778
          28.3778
          28.3778
          28.3778
          28.3848
          28.397
          28.4141
          28.4141
          28.4141
          28.4141
          28.3501
          28.291
          28.2371
          28.237
          28.237
          28.2369
          26.7979
          25.3643
          23.9364
          22.513
          21.0924
          21.1147
          22.8788
          24.6444
          26.4128
          28.1853
          28.1854
          28.1854
          28.1854
          28.2478
          28.3151
          28.3873
          28.3873
          28.3873
          28.3873
          28.3944
          28.4066
          28.4237
          28.4237
          28.4237
          28.4237
          28.3598
          28.3008
          28.2468
          28.2468
          28.2467
          28.2467
          26.8078
          25.3737
          23.9439
          22.5173
          21.0926
          21.1149
          22.8819
          24.6503
          26.4214
          28.1962
          28.1963
          28.1963
          28.1964
          28.2586
          28.3258
          28.3979
          28.3979
          28.3979
          28.3979
          28.4051
          28.4172
          28.4343
          28.4343
          28.4343
          28.4343
          28.3705
          28.3116
          28.2577
          28.2577
          28.2576
          28.2575
          26.8178
          25.3824
          23.9504
          22.521
          21.0929
          21.1151
          22.8853
          24.6567
          26.4306
          28.2082
          28.2083
          28.2084
          28.2084
          28.2705
          28.3376
          28.4096
          28.4096
          28.4096
          28.4096
          28.4168
          28.4289
          28.446
          28.446
          28.446
          28.446
          28.3823
          28.3235
          28.2696
          28.2696
          28.2696
          28.2695
          26.8283
          25.3911
          23.9568
          22.5244
          21.0931
          21.1153
          22.8889
          24.6636
          26.4407
          28.2214
          28.2215
          28.2215
          28.2215
          28.2836
          28.3505
          28.4224
          28.4224
          28.4224
          28.4224
          28.4296
          28.4417
          28.4588
          28.4588
          28.4588
          28.4588
          28.3952
          28.3365
          28.2827
          28.2827
          28.2827
          28.2826
          26.8397
          25.4005
          23.9636
          22.5281
          21.0933
          21.1156
          22.8929
          24.6712
          26.4517
          28.2356
          28.2357
          28.2358
          28.2358
          28.2977
          28.3645
          28.4362
          28.4362
          28.4362
          28.4362
          28.4434
          28.4556
          28.4726
          28.4726
          28.4726
          28.4726
          28.4091
          28.3506
          28.2969
          28.2969
          28.2968
          28.2968
          26.8524
          25.4112
          23.9716
          22.5325
          21.0936
          21.1159
          22.8975
          24.6799
          26.4639
          28.251
          28.2511
          28.2512
          28.2512
          28.3129
          28.3796
          28.4512
          28.4512
          28.4512
          28.4512
          28.4584
          28.4705
          28.4876
          28.4876
          28.4876
          28.4876
          28.4242
          28.3658
          28.3122
          28.3122
          28.3122
          28.3121
          26.867
          25.4242
          23.9816
          22.5381
          21.094
          21.1162
          22.9032
          24.69
          26.4776
          28.2675
          28.2676
          28.2677
          28.2677
          28.3293
          28.3958
          28.4672
          28.4672
          28.4672
          28.4672
          28.4744
          28.4866
          28.5037
          28.5037
          28.5036
          28.5036
          28.4404
          28.3821
          28.3286
          28.3286
          28.3286
          28.3285
          26.8844
          25.441
          23.9952
          22.5461
          21.0944
          21.1168
          22.9107
          24.703
          26.4937
          28.2851
          28.2852
          28.2853
          28.2853
          28.3467
          28.4131
          28.4843
          28.4843
          28.4844
          28.4844
          28.4916
          28.5037
          28.5208
          28.5208
          28.5208
          28.5208
          28.4577
          28.3995
          28.3462
          28.3461
          28.3461
          28.346
          26.9064
          25.4645
          24.0155
          22.5581
          21.0953
          21.1173
          22.9224
          24.7217
          26.5142
          28.3038
          28.3039
          28.304
          28.304
          28.3653
          28.4315
          28.5025
          28.5026
          28.5026
          28.5026
          28.5098
          28.522
          28.539
          28.539
          28.539
          28.539
          28.476
          28.418
          28.3648
          28.3648
          28.3647
          28.3646
          26.9364
          25.5003
          24.048
          22.5782
          21.0963
          21.1197
          22.9425
          24.7526
          26.5436
          28.3237
          28.3238
          28.3239
          28.3239
          28.385
          28.4509
          28.5218
          28.5218
          28.5219
          28.5219
          28.5292
          28.5414
          28.5583
          28.5583
          28.5583
          28.5583
          28.4955
          28.4376
          28.3845
          28.3845
          28.3845
          28.3844
          26.9806
          25.5587
          24.1036
          22.6126
          21.0997
          21.1177
          22.9839
          24.8095
          26.592
          28.3446
          28.3447
          28.3448
          28.3449
          28.4058
          28.4715
          28.5421
          28.5422
          28.5423
          28.5423
          28.5499
          28.562
          28.5787
          28.5787
          28.5787
          28.5786
          28.5161
          28.4584
          28.4054
          28.4054
          28.4053
          28.4052
          27.0502
          25.6592
          24.2023
          22.6774
          21.0991
          21.1441
          23.0614
          24.9284
          26.681
          28.3666
          28.3667
          28.367
          28.3671
          28.4278
          28.4932
          28.5634
          28.5636
          28.5638
          28.5639
          28.5722
          28.5843
          28.6003
          28.6002
          28.6001
          28.6
          28.5379
          28.4805
          28.4275
          28.4274
          28.4272
          28.427
          27.1654
          25.8363
          24.3875
          22.7909
          21.1279
          21.0652
          23.2778
          25.1697
          26.8619
          28.3894
          28.3897
          28.3904
          28.3907
          28.4514
          28.516
          28.5854
          28.5858
          28.5866
          28.587
          28.5971
          28.6091
          28.6232
          28.623
          28.6225
          28.6222
          28.5612
          28.5043
          28.451
          28.4507
          28.45
          28.4497
          27.3543
          26.1563
          24.7268
          23.0591
          21.0516
          21.5054
          23.5952
          25.7581
          27.2037
          28.4123
          28.4134
          28.4153
          28.4163
          28.4773
          28.5403
          28.6073
          28.6086
          28.6111
          28.6124
          28.6269
          28.6386
          28.648
          28.6471
          28.6456
          28.6447
          28.5867
          28.5311
          28.4766
          28.4755
          28.4735
          28.4724
          27.644
          26.6987
          25.4497
          23.4449
          21.4986
          19.7742
          25.3481
          26.8699
          27.7499
          28.4339
          28.4363
          28.4432
          28.4456
          28.5098
          28.5664
          28.6269
          28.6302
          28.639
          28.6422
          28.6682
          28.6787
          28.6759
          28.6739
          28.6683
          28.6663
          28.6159
          28.5657
          28.5058
          28.5033
          28.4963
          28.4937
          28.0385
          27.5043
          26.7295
          25.2888
          19.761
          28.421
          28.4315
          28.4396
          28.4473
          28.451
          28.4558
          28.4692
          28.4965
          28.5563
          28.5979
          28.6335
          28.6502
          28.6679
          28.6926
          28.7324
          28.7398
          28.7175
          28.7015
          28.6903
          28.6802
          28.6542
          28.6161
          28.5569
          28.5294
          28.5156
          28.51
          28.5051
          28.4964
          28.4879
          28.4794
          28.4689
          28.4252
          28.4325
          28.4403
          28.4482
          28.4573
          28.4698
          28.4893
          28.5201
          28.5587
          28.601
          28.6386
          28.6709
          28.6981
          28.7233
          28.7423
          28.7496
          28.744
          28.7308
          28.7141
          28.691
          28.6595
          28.6198
          28.5811
          28.5497
          28.5294
          28.516
          28.5059
          28.4969
          28.4884
          28.4804
          28.473
          28.4298
          28.4346
          28.4414
          28.4503
          28.4619
          28.4776
          28.4996
          28.529
          28.5652
          28.6069
          28.654
          28.6976
          28.7304
          28.7548
          28.7711
          28.7778
          28.7749
          28.7634
          28.744
          28.7152
          28.6739
          28.6289
          28.5908
          28.5603
          28.5372
          28.5204
          28.5077
          28.4976
          28.4891
          28.4824
          28.4776
          28.4332
          28.4354
          28.442
          28.4512
          28.4635
          28.4801
          28.5026
          28.5318
          28.5676
          28.6099
          28.6631
          28.7134
          28.748
          28.7727
          28.7884
          28.7951
          28.7926
          28.7813
          28.7611
          28.7303
          28.6829
          28.6326
          28.5941
          28.5634
          28.5397
          28.522
          28.5085
          28.498
          28.4895
          28.4832
          28.481
        </DataArray>
      </PointData>
      <CellData>
      </CellData>
      <Points>
        <DataArray type="Float32" NumberOfComponents="3" format="ascii">
          0.039 0.00195 0.0
          0.0377 0.00195 0.0
          0.0364 0.00195 0.0
          0.0351 0.00195 0.0
          0.0338 0.00195 0.0
          0.0325 0.00195 0.0
          0.0312 0.00195 0.0
          0.0299 0.00195 0.0
          0.0286 0.00195 0.0
          0.0273 0.00195 0.0
          0.026 0.00195 0.0
          0.0247 0.00195 0.0
          0.0234 0.00195 0.0
          0.0221 0.00195 0.0
          0.0208 0.00195 0.0
          0.0195 0.00195 0.0
          0.0182 0.00195 0.0
          0.0169 0.00195 0.0
          0.0156 0.00195 0.0
          0.0143 0.00195 0.0
          0.013 0.00195 0.0
          0.0117 0.00195 0.0
          0.0104 0.00195 0.0
          0.0091 0.00195 0.0
          0.0078 0.00195 0.0
          0.0065 0.00195 0.0
          0.0052 0.00195 0.0
          0.0039 0.00195 0.0
          0.0026 0.00195 0.0
          0.0013 0.00195 0.0
          0 0.00195 0.0
          0.039 0.00065 0.0
          0.0377 0.00065 0.0
          0.0364 0.00065 0.0
          0.0351 0.00065 0.0
          0.0338 0.00065 0.0
          0.0325 0.00065 0.0
          0.0312 0.00065 0.0
          0.0299 0.00065 0.0
          0.0286 0.00065 0.0
          0.0273 0.00065 0.0
          0.026 0.00065 0.0
          0.0247 0.00065 0.0
          0.0234 0.00065 0.0
          0.0221 0.00065 0.0
          0.0208 0.00065 0.0
          0.0195 0.00065 0.0
          0.0182 0.00065 0.0
          0.0169 0.00065 0.0
          0.0156 0.00065 0.0
          0.0143 0.00065 0.0
          0.013 0.00065 0.0
          0.0117 0.00065 0.0
          0.0104 0.00065 0.0
          0.0091 0.00065 0.0
          0.0078 0.00065 0.0
          0.0065 0.00065 0.0
          0.0052 0.00065 0.0
          0.0039 0.00065 0.0
          0.0026 0.00065 0.0
          0.0013 0.00065 0.0
          0 0.00065 0.0
          0.039 -0.00065 0.0
          0.0377 -0.00065 0.0
          0.0364 -0.00065 0.0
          0.0351 -0.00065 0.0
          0.0338 -0.00065 0.0
          0.0325 -0.00065 0.0
          0.0312 -0.00065 0.0
          0.0299 -0.00065 0.0
          0.0286 -0.00065 0.0
          0.0273 -0.00065 0.0
          0.026 -0.00065 0.0
          0.0247 -0.00065 0.0
          0.0234 -0.00065 0.0
          0.0221 -0.00065 0.0
          0.0208 -0.00065 0.0
          0.0195 -0.00065 0.0
          0.0182 -0.00065 0.0
          0.0169 -0.00065 0.0
          0.0156 -0.00065 0.0
          0.0143 -0.00065 0.0
          0.013 -0.00065 0.0
          0.0117 -0.00065 0.0
          0.0104 -0.00065 0.0
          0.0091 -0.00065 0.0
          0.0078 -0.00065 0.0
          0.0065 -0.00065 0.0
          0.0052 -0.00065 0.0
          0.0039 -0.00065 0.0
          0.0026 -0.00065 0.0
          0.0013 -0.00065 0.0
          0 -0.00065 0.0
          0.039 -0.00195 0.0
          0.0377 -0.00195 0.0
          0.0364 -0.00195 0.0
          0.0351 -0.00195 0.0
          0.0338 -0.00195 0.0
          0.0325 -0.00195 0.0
          0.0312 -0.00195 0.0
          0.0299 -0.00195 0.0
          0.0286 -0.00195 0.0
          0.0273 -0.00195 0.0
          0.026 -0.00195 0.0
          0.0247 -0.00195 0.0
          0.0234 -0.00195 0.0
          0.0221 -0.00195 0.0
          0.0208 -0.00195 0.0
          0.0195 -0.00195 0.0
          0.0182 -0.00195 0.0
          0.0169 -0.00195 0.0
          0.0156 -0.00195 0.0
          0.0143 -0.00195 0.0
          0.013 -0.00195 0.0
          0.0117 -0.00195 0.0
          0.0104 -0.00195 0.0
          0.0091 -0.00195 0.0
          0.0078 -0.00195 0.0
          0.0065 -0.00195 0.0
          0.0052 -0.00195 0.0
          0.0039 -0.00195 0.0
          0.0026 -0.00195 0.0
          0.0013 -0.00195 0.0
          0 -0.00195 0.0
          0.039 -0.00325 0.0
          0.0377 -0.00325 0.0
          0.0364 -0.00325 0.0
          0.0351 -0.00325 0.0
          0.0338 -0.00325 0.0
          0.0325 -0.00325 0.0
          0.0312 -0.00325 0.0
          0.0299 -0.00325 0.0
          0.0286 -0.00325 0.0
          0.0273 -0.00325 0.0
          0.026 -0.00325 0.0
          0.0247 -0.00325 0.0
          0.0234 -0.00325 0.0
          0.0221 -0.00325 0.0
          0.0208 -0.00325 0.0
          0.0195 -0.00325 0.0
          0.0182 -0.00325 0.0
          0.0169 -0.00325 0.0
          0.0156 -0.00325 0.0
          0.0143 -0.00325 0.0
          0.013 -0.00325 0.0
          0.0117 -0.00325 0.0
          0.0104 -0.00325 0.0
          0.0091 -0.00325 0.0
          0.0078 -0.00325 0.0
          0.0065 -0.00325 0.0
          0.0052 -0.00325 0.0
          0.0039 -0.00325 0.0
          0.0026 -0.00325 0.0
          0.0013 -0.00325 0.0
          0 -0.00325 0.0
          0.039 -0.00455 0.0
          0.0377 -0.00455 0.0
          0.0364 -0.00455 0.0
          0.0351 -0.00455 0.0
          0.0338 -0.00455 0.0
          0.0325 -0.00455 0.0
          0.0312 -0.00455 0.0
          0.0299 -0.00455 0.0
          0.0286 -0.00455 0.0
          0.0273 -0.00455 0.0
          0.026 -0.00455 0.0
          0.0247 -0.00455 0.0
          0.0234 -0.00455 0.0
          0.0221 -0.00455 0.0
          0.0208 -0.00455 0.0
          0.0195 -0.00455 0.0
          0.0182 -0.00455 0.0
          0.0169 -0.00455 0.0
          0.0156 -0.00455 0.0
          0.0143 -0.00455 0.0
          0.013 -0.00455 0.0
          0.0117 -0.00455 0.0
          0.0104 -0.00455 0.0
          0.0091 -0.00455 0.0
          0.0078 -0.00455 0.0
          0.0065 -0.00455 0.0
          0.0052 -0.00455 0.0
          0.0039 -0.00455 0.0
          0.0026 -0.00455 0.0
          0.0013 -0.00455 0.0
          0 -0.00455 0.0
          0.039 -0.00585 0.0
          0.0377 -0.00585 0.0
          0.0364 -0.00585 0.0
          0.0351 -0.00585 0.0
          0.0338 -0.00585 0.0
          0.0325 -0.00585 0.0
          0.0312 -0.00585 0.0
          0.0299 -0.00585 0.0
          0.0286 -0.00585 0.0
          0.0273 -0.00585 0.0
          0.026 -0.00585 0.0
          0.0247 -0.00585 0.0
          0.0234 -0.00585 0.0
          0.0221 -0.00585 0.0
          0.0208 -0.00585 0.0
          0.0195 -0.00585 0.0
          0.0182 -0.00585 0.0
          0.0169 -0.00585 0.0
          0.0156 -0.00585 0.0
          0.0143 -0.00585 0.0
          0.013 -0.00585 0.0
          0.0117 -0.00585 0.0
          0.0104 -0.00585 0.0
          0.0091 -0.00585 0.0
          0.0078 -0.00585 0.0
          0.0065 -0.00585 0.0
          0.0052 -0.00585 0.0
          0.0039 -0.00585 0.0
          0.0026 -0.00585 0.0
          0.0013 -0.00585 0.0
          0 -0.00585 0.0
          0.039 -0.00715 0.0
          0.0377 -0.00715 0.0
          0.0364 -0.00715 0.0
          0.0351 -0.00715 0.0
          0.0338 -0.00715 0.0
          0.0325 -0.00715 0.0
          0.0312 -0.00715 0.0
          0.0299 -0.00715 0.0
          0.0286 -0.00715 0.0
          0.0273 -0.00715 0.0
          0.026 -0.00715 0.0
          0.0247 -0.00715 0.0
          0.0234 -0.00715 0.0
          0.0221 -0.00715 0.0
          0.0208 -0.00715 0.0
          0.0195 -0.00715 0.0
          0.0182 -0.00715 0.0
          0.0169 -0.00715 0.0
          0.0156 -0.00715 0.0
          0.0143 -0.00715 0.0
          0.013 -0.00715 0.0
          0.0117 -0.00715 0.0
          0.0104 -0.00715 0.0
          0.0091 -0.00715 0.0
          0.0078 -0.00715 0.0
          0.0065 -0.00715 0.0
          0.0052 -0.00715 0.0
          0.0039 -0.00715 0.0
          0.0026 -0.00715 0.0
          0.0013 -0.00715 0.0
          0 -0.00715 0.0
          0.039 -0.00845 0.0
          0.0377 -0.00845 0.0
          0.0364 -0.00845 0.0
          0.0351 -0.00845 0.0
          0.0338 -0.00845 0.0
          0.0325 -0.00845 0.0
          0.0312 -0.00845 0.0
          0.0299 -0.00845 0.0
          0.0286 -0.00845 0.0
          0.0273 -0.00845 0.0
          0.026 -0.00845 0.0
          0.0247 -0.00845 0.0
          0.0234 -0.00845 0.0
          0.0221 -0.00845 0.0
          0.0208 -0.00845 0.0
          0.0195 -0.00845 0.0
          0.0182 -0.00845 0.0
          0.0169 -0.00845 0.0
          0.0156 -0.00845 0.0
          0.0143 -0.00845 0.0
          0.013 -0.00845 0.0
          0.0117 -0.00845 0.0
          0.0104 -0.00845 0.0
          0.0091 -0.00845 0.0
          0.0078 -0.00845 0.0
          0.0065 -0.00845 0.0
          0.0052 -0.00845 0.0
          0.0039 -0.00845 0.0
          0.0026 -0.00845 0.0
          0.0013 -0.00845 0.0
          0 -0.00845 0.0
          0.039 -0.00975 0.0
          0.0377 -0.00975 0.0
          0.0364 -0.00975 0.0
          0.0351 -0.00975 0.0
          0.0338 -0.00975 0.0
          0.0325 -0.00975 0.0
          0.0312 -0.00975 0.0
          0.0299 -0.00975 0.0
          0.0286 -0.00975 0.0
          0.0273 -0.00975 0.0
          0.026 -0.00975 0.0
          0.0247 -0.00975 0.0
          0.0234 -0.00975 0.0
          0.0221 -0.00975 0.0
          0.0208 -0.00975 0.0
          0.0195 -0.00975 0.0
          0.0182 -0.00975 0.0
          0.0169 -0.00975 0.0
          0.0156 -0.00975 0.0
          0.0143 -0.00975 0.0
          0.013 -0.00975 0.0
          0.0117 -0.00975 0.0
          0.0104 -0.00975 0.0
          0.0091 -0.00975 0.0
          0.0078 -0.00975 0.0
          0.0065 -0.00975 0.0
          0.0052 -0.00975 0.0
          0.0039 -0.00975 0.0
          0.0026 -0.00975 0.0
          0.0013 -0.00975 0.0
          0 -0.00975 0.0
          0.039 -0.01105 0.0
          0.0377 -0.01105 0.0
          0.0364 -0.01105 0.0
          0.0351 -0.01105 0.0
          0.0338 -0.01105 0.0
          0.0325 -0.01105 0.0
          0.0312 -0.01105 0.0
          0.0299 -0.01105 0.0
          0.0286 -0.01105 0.0
          0.0273 -0.01105 0.0
          0.026 -0.01105 0.0
          0.0247 -0.01105 0.0
          0.0234 -0.01105 0.0
          0.0221 -0.01105 0.0
          0.0208 -0.01105 0.0
          0.0195 -0.01105 0.0
          0.0182 -0.01105 0.0
          0.0169 -0.01105 0.0
          0.0156 -0.01105 0.0
          0.0143 -0.01105 0.0
          0.013 -0.01105 0.0
          0.0117 -0.01105 0.0
          0.0104 -0.01105 0.0
          0.0091 -0.01105 0.0
          0.0078 -0.01105 0.0
          0.0065 -0.01105 0.0
          0.0052 -0.01105 0.0
          0.0039 -0.01105 0.0
          0.0026 -0.01105 0.0
          0.0013 -0.01105 0.0
          0 -0.01105 0.0
          0.039 -0.01235 0.0
          0.0377 -0.01235 0.0
          0.0364 -0.01235 0.0
          0.0351 -0.01235 0.0
          0.0338 -0.01235 0.0
          0.0325 -0.01235 0.0
          0.0312 -0.01235 0.0
          0.0299 -0.01235 0.0
          0.0286 -0.01235 0.0
          0.0273 -0.01235 0.0
          0.026 -0.01235 0.0
          0.0247 -0.01235 0.0
          0.0234 -0.01235 0.0
          0.0221 -0.01235 0.0
          0.0208 -0.01235 0.0
          0.0195 -0.01235 0.0
          0.0182 -0.01235 0.0
          0.0169 -0.01235 0.0
          0.0156 -0.01235 0.0
          0.0143 -0.01235 0.0
          0.013 -0.01235 0.0
          0.0117 -0.01235 0.0
          0.0104 -0.01235 0.0
          0.0091 -0.01235 0.0
          0.0078 -0.01235 0.0
          0.0065 -0.01235 0.0
          0.0052 -0.01235 0.0
          0.0039 -0.01235 0.0
          0.0026 -0.01235 0.0
          0.0013 -0.01235 0.0
          0 -0.01235 0.0
          0.039 -0.01365 0.0
          0.0377 -0.01365 0.0
          0.0364 -0.01365 0.0
          0.0351 -0.01365 0.0
          0.0338 -0.01365 0.0
          0.0325 -0.01365 0.0
          0.0312 -0.01365 0.0
          0.0299 -0.01365 0.0
          0.0286 -0.01365 0.0
          0.0273 -0.01365 0.0
          0.026 -0.01365 0.0
          0.0247 -0.01365 0.0
          0.0234 -0.01365 0.0
          0.0221 -0.01365 0.0
          0.0208 -0.01365 0.0
          0.0195 -0.01365 0.0
          0.0182 -0.01365 0.0
          0.0169 -0.01365 0.0
          0.0156 -0.01365 0.0
          0.0143 -0.01365 0.0
          0.013 -0.01365 0.0
          0.0117 -0.01365 0.0
          0.0104 -0.01365 0.0
          0.0091 -0.01365 0.0
          0.0078 -0.01365 0.0
          0.0065 -0.01365 0.0
          0.0052 -0.01365 0.0
          0.0039 -0.01365 0.0
          0.0026 -0.01365 0.0
          0.0013 -0.01365 0.0
          0 -0.01365 0.0
          0.039 -0.01495 0.0
          0.0377 -0.01495 0.0
          0.0364 -0.01495 0.0
          0.0351 -0.01495 0.0
          0.0338 -0.01495 0.0
          0.0325 -0.01495 0.0
          0.0312 -0.01495 0.0
          0.0299 -0.01495 0.0
          0.0286 -0.01495 0.0
          0.0273 -0.01495 0.0
          0.026 -0.01495 0.0
          0.0247 -0.01495 0.0
          0.0234 -0.01495 0.0
          0.0221 -0.01495 0.0