<?xml version="1.0"?>
<VTKFile type="UnstructuredGrid" version="0.1" byte_order="LittleEndian">
  <UnstructuredGrid>
    <Piece NumberOfPoints="961" NumberOfCells="900">
      <PointData Scalars="Temperature">
        <DataArray type="Float32" Name="Temperature" format="ascii">
          21.0003
          21.0059
          21.0116
          21.0173
          21.0221
          21.0253
          21.0268
          21.0271
          21.0273
          21.0281
          21.0294
          21.0304
          21.0307
          21.0302
          21.0297
          21.0299
          21.0306
          21.0312
          21.0311
          21.0301
          21.0289
          21.0282
          21.0281
          21.0279
          21.0266
          21.0235
          21.0191
          21.0139
          21.0089
          21.0044
          21.0003
          21.0057
          21.0943
          21.1895
          21.2853
          21.3687
          21.4215
          21.4428
          21.4438
          21.4452
          21.459
          21.4827
          21.502
          21.5055
          21.4949
          21.4845
          21.487
          21.5018
          21.5151
          21.5131
          21.4946
          21.4719
          21.4597
          21.46
          21.4607
          21.4414
          21.3917
          21.314
          21.2269
          21.1437
          21.0712
          21.0043
          21.0106
          21.1759
          21.3562
          21.5726
          21.7488
          21.8615
          21.8823
          21.8605
          21.8446
          21.8776
          21.943
          21.9987
          22.0021
          21.9612
          21.9216
          21.9278
          21.9764
          22.0227
          22.0207
          21.9657
          21.9018
          21.8724
          21.8923
          21.9174
          21.8986
          21.791
          21.6251
          21.4256
          21.2681
          21.1327
          21.008
          21.0146
          21.2434
          21.4953
          21.7983
          22.3468
          22.3469
          22.3469
          22.3469
          22.1436
          22.1918
          22.5224
          22.5225
          22.5225
          22.5224
          22.2489
          22.258
          22.5558
          22.5558
          22.5558
          22.5558
          22.2243
          22.1815
          22.3996
          22.3996
          22.3996
          22.3995
          21.869
          21.5916
          21.3722
          21.1847
          21.0111
          21.0176
          21.2922
          21.5887
          21.9421
          22.3475
          22.3475
          22.3475
          22.3475
          22.3188
          22.3773
          22.5231
          22.5231
          22.5231
          22.5231
          22.4411
          22.4522
          22.5565
          22.5565
          22.5565
          22.5565
          22.4147
          22.3626
          22.4002
          22.4002
          22.4002
          22.4002
          22.0253
          21.7059
          21.4499
          21.2246
          21.0136
          21.0195
          21.3221
          21.6406
          21.9841
          22.3493
          22.3493
          22.3493
          22.3493
          22.3769
          22.4354
          22.5249
          22.5249
          22.5249
          22.5249
          22.5032
          22.5143
          22.5583
          22.5583
          22.5583
          22.5583
          22.4744
          22.4224
          22.4021
          22.4021
          22.402
          22.402
          22.0754
          21.7731
          21.5009
          21.2523
          21.0153
          21.0205
          21.3382
          21.6641
          22.0026
          22.3522
          22.3523
          22.3523
          22.3523
          22.3975
          22.456
          22.5279
          22.5279
          22.5279
          22.5279
          22.5251
          22.5362
          22.5613
          22.5613
          22.5613
          22.5613
          22.4956
          22.4435
          22.4051
          22.4051
          22.405
          22.405
          22.0995
          21.8072
          21.5315
          21.2699
          21.0164
          21.0211
          21.3462
          21.6759
          22.0126
          22.3564
          22.3564
          22.3564
          22.3564
          22.4071
          22.4657
          22.5321
          22.5321
          22.5321
          22.5321
          22.5352
          22.5463
          22.5655
          22.5655
          22.5655
          22.5655
          22.5055
          22.4534
          22.4092
          22.4092
          22.4092
          22.4092
          22.1134
          21.8262
          21.549
          21.2805
          21.0171
          21.0214
          21.3507
          21.6829
          22.0196
          22.3617
          22.3617
          22.3617
          22.3617
          22.4142
          22.4728
          22.5374
          22.5374
          22.5374
          22.5375
          22.5424
          22.5535
          22.5709
          22.5709
          22.5709
          22.5709
          22.5126
          22.4605
          22.4146
          22.4146
          22.4146
          22.4145
          22.123
          21.838
          21.5596
          21.2869
          21.0175
          21.0216
          21.3538
          21.688
          22.0258
          22.3681
          22.3681
          22.3682
          22.3682
          22.4212
          22.4798
          22.544
          22.544
          22.544
          22.544
          22.5495
          22.5607
          22.5775
          22.5775
          22.5775
          22.5775
          22.5197
          22.4676
          22.4211
          22.4211
          22.4211
          22.4211
          22.131
          21.8463
          21.5667
          21.2911
          21.0178
          21.0217
          21.3564
          21.6928
          22.0321
          22.3757
          22.3758
          22.3758
          22.3758
          22.429
          22.4877
          22.5517
          22.5517
          22.5517
          22.5517
          22.5574
          22.5686
          22.5852
          22.5852
          22.5852
          22.5852
          22.5277
          22.4755
          22.4288
          22.4288
          22.4288
          22.4288
          22.1386
          21.8533
          21.5722
          21.2942
          21.0179
          21.0219
          21.359
          21.6976
          22.039
          22.3845
          22.3846
          22.3846
          22.3846
          22.4379
          22.4966
          22.5606
          22.5606
          22.5606
          22.5606
          22.5664
          22.5776
          22.5942
          22.5942
          22.5942
          22.5942
          22.5366
          22.4845
          22.4377
          22.4377
          22.4377
          22.4376
          22.1465
          21.8599
          21.5771
          21.2969
          21.0181
          21.0221
          21.3617
          21.7028
          22.0466
          22.3945
          22.3945
          22.3945
          22.3945
          22.4479
          22.5066
          22.5707
          22.5707
          22.5707
          22.5707
          22.5765
          22.5877
          22.6043
          22.6043
          22.6043
          22.6043
          22.5467
          22.4946
          22.4477
          22.4477
          22.4477
          22.4477
          22.155
          21.8667
          21.5818
          21.2994
          21.0183
          21.0223
          21.3647
          21.7085
          22.0551
          22.4056
          22.4056
          22.4056
          22.4056
          22.4591
          22.5178
          22.5819
          22.5819
          22.5819
          22.5819
          22.5878
          22.599
          22.6156
          22.6156
          22.6156
          22.6156
          22.558
          22.5058
          22.4589
          22.4589
          22.4589
          22.4589
          22.1642
          21.8739
          21.5868
          21.302
          21.0184
          21.0225
          21.3679
          21.7148
          22.0644
          22.4179
          22.4179
          22.4179
          22.4179
          22.4714
          22.5302
          22.5943
          22.5943
          22.5943
          22.5943
          22.6002
          22.6115
          22.6281
          22.6281
          22.6281
          22.6281
          22.5705
          22.5182
          22.4713
          22.4713
          22.4713
          22.4713
          22.1744
          21.8817
          21.5922
          21.3048
          21.0186
          21.0227
          21.3715
          21.7217
          22.0745
          22.4313
          22.4314
          22.4314
          22.4314
          22.4849
          22.5438
          22.6079
          22.6079
          22.6079
          22.6079
          22.6138
          22.6251
          22.6417
          22.6417
          22.6417
          22.6417
          22.5841
          22.5318
          22.4849
          22.4849
          22.4849
          22.4849
          22.1854
          21.8902
          21.598
          21.3079
          21.0188
          21.0229
          21.3754
          21.7292
          22.0856
          22.446
          22.446
          22.446
          22.446
          22.4996
          22.5585
          22.6227
          22.6227
          22.6227
          22.6227
          22.6286
          22.6399
          22.6566
          22.6566
          22.6566
          22.6566
          22.5989
          22.5466
          22.4997
          22.4997
          22.4996
          22.4996
          22.1976
          21.8996
          21.6045
          21.3113
          21.019
          21.0232
          21.3797
          21.7374
          22.0976
          22.4617
          22.4618
          22.4618
          22.4618
          22.5154
          22.5744
          22.6386
          22.6386
          22.6386
          22.6386
          22.6446
          22.6559
          22.6726
          22.6726
          22.6726
          22.6726
          22.6149
          22.5626
          22.5156
          22.5156
          22.5156
          22.5156
          22.2109
          21.9101
          21.6118
          21.3152
          21.0192
          21.0235
          21.3844
          21.7464
          22.1107
          22.4787
          22.4787
          22.4787
          22.4787
          22.5324
          22.5914
          22.6558
          22.6558
          22.6558
          22.6558
          22.6618
          22.6731
          22.6898
          22.6898
          22.6898
          22.6898
          22.6321
          22.5797
          22.5327
          22.5327
          22.5327
          22.5327
          22.2255
          21.9219
          21.6204
          21.3198
          21.0195
          21.0238
          21.3898
          21.7565
          22.125
          22.4968
          22.4968
          22.4968
          22.4969
          22.5506
          22.6097
          22.6741
          22.6741
          22.6741
          22.6741
          22.6801
          22.6915
          22.7082
          22.7082
          22.7082
          22.7082
          22.6504
          22.598
          22.551
          22.551
          22.5509
          22.5509
          22.242
          21.9359
          21.6308
          21.3255
          21.0199
          21.0242
          21.3963
          21.7683
          22.1409
          22.5161
          22.5161
          22.5161
          22.5161
          22.57
          22.6291
          22.6935
          22.6935
          22.6935
          22.6935
          22.6996
          22.711
          22.7277
          22.7277
          22.7277
          22.7277
          22.67
          22.6175
          22.5704
          22.5704
          22.5704
          22.5704
          22.261
          21.9532
          21.6443
          21.3332
          21.0203
          21.025
          21.405
          21.7833
          22.1595
          22.5365
          22.5366
          22.5366
          22.5366
          22.5905
          22.6497
          22.7142
          22.7142
          22.7142
          22.7142
          22.7204
          22.7318
          22.7485
          22.7485
          22.7485
          22.7484
          22.6907
          22.6382
          22.5911
          22.591
          22.591
          22.591
          22.2839
          21.9762
          21.6635
          21.3444
          21.0213
          21.0248
          21.4186
          21.8045
          22.183
          22.5581
          22.5582
          22.5582
          22.5583
          22.6122
          22.6714
          22.7359
          22.736
          22.736
          22.7361
          22.7426
          22.754
          22.7704
          22.7704
          22.7704
          22.7703
          22.7126
          22.6602
          22.6129
          22.6129
          22.6128
          22.6128
          22.3134
          22.0093
          21.6929
          21.3628
          21.0214
          21.031
          21.4405
          21.84
          22.2162
          22.5808
          22.5809
          22.5811
          22.5812
          22.6352
          22.6943
          22.7588
          22.7589
          22.7591
          22.7592
          22.7664
          22.7779
          22.7936
          22.7935
          22.7934
          22.7933
          22.7358
          22.6835
          22.636
          22.6359
          22.6357
          22.6356
          22.354
          22.0605
          21.7424
          21.3924
          21.0282
          21.0136
          21.4938
          21.9033
          22.2705
          22.6044
          22.6047
          22.6052
          22.6055
          22.6598
          22.7185
          22.7824
          22.7828
          22.7835
          22.7839
          22.7929
          22.8043
          22.8182
          22.818
          22.8175
          22.8173
          22.7606
          22.7085
          22.6605
          22.6602
          22.6597
          22.6594
          22.412
          22.1449
          21.8276
          21.4577
          21.0109
          21.1127
          21.57
          22.045
          22.3614
          22.6284
          22.6293
          22.6309
          22.6318
          22.6868
          22.7443
          22.8061
          22.8073
          22.8097
          22.8109
          22.8244
          22.8355
          22.8447
          22.8439
          22.8424
          22.8416
          22.7877
          22.7367
          22.6871
          22.6861
          22.6844
          22.6835
          22.4937
          22.2811
          22.0014
          21.5503
          21.1137
          20.7244
          21.969
          22.3053
          22.4989
          22.6513
          22.6534
          22.6593
          22.6614
          22.7202
          22.7721
          22.8277
          22.8308
          22.8392
          22.8423
          22.8675
          22.8775
          22.8744
          22.8725
          22.8671
          22.8652
          22.8188
          22.7724
          22.7171
          22.7148
          22.7087
          22.7065
          22.6004
          22.4792
          22.3042
          21.9779
          20.7154
          22.6657
          22.6684
          22.6712
          22.6742
          22.672
          22.6742
          22.6857
          22.7111
          22.7676
          22.8062
          22.8377
          22.8527
          22.8695
          22.894
          22.934
          22.941
          22.9179
          22.9016
          22.891
          22.8824
          22.8598
          22.8242
          22.7677
          22.7416
          22.7295
          22.7266
          22.7274
          22.7233
          22.7194
          22.7161
          22.7133
          22.6666
          22.6687
          22.6717
          22.6751
          22.6802
          22.6892
          22.706
          22.7341
          22.77
          22.8094
          22.8444
          22.8747
          22.9007
          22.9253
          22.9439
          22.9509
          22.9452
          22.9321
          22.9162
          22.8946
          22.8652
          22.8279
          22.7915
          22.7624
          22.7446
          22.7345
          22.7283
          22.7236
          22.7195
          22.7164
          22.7143
          22.6678
          22.6693
          22.6724
          22.6774
          22.6851
          22.6975
          22.7165
          22.743
          22.7765
          22.8156
          22.8604
          22.9022
          22.9337
          22.9572
          22.9729
          22.9794
          22.9765
          22.9654
          22.9468
          22.9194
          22.8799
          22.8371
          22.8013
          22.7733
          22.753
          22.7394
          22.7305
          22.7243
          22.7199
          22.7169
          22.7153
          22.6686
          22.6696
          22.6728
          22.6783
          22.6869
          22.7002
          22.7196
          22.7459
          22.7789
          22.8188
          22.8697
          22.9182
          22.9514
          22.9752
          22.9904
          22.9968
          22.9943
          22.9835
          22.9641
          22.9347
          22.8891
          22.8409
          22.8047
          22.7765
          22.7557
          22.7412
          22.7313
          22.7247
          22.7201
          22.7171
          22.7161
        </DataArray>
      </PointData>
      <CellData>
      </CellData>
      <Points>
        <DataArray type="Float32" NumberOfComponents="3" format="ascii">
          0.039 0.00195 0.0
          0.0377 0.00195 0.0
          0.0364 0.00195 0.0
          0.0351 0.00195 0.0
          0.0338 0.00195 0.0
          0.0325 0.00195 0.0
          0.0312 0.00195 0.0
          0.0299 0.00195 0.0
          0.0286 0.00195 0.0
          0.0273 0.00195 0.0
          0.026 0.00195 0.0
          0.0247 0.00195 0.0
          0.0234 0.00195 0.0
          0.0221 0.00195 0.0
          0.0208 0.00195 0.0
          0.0195 0.00195 0.0
          0.0182 0.00195 0.0
          0.0169 0.00195 0.0
          0.0156 0.00195 0.0
          0.0143 0.00195 0.0
          0.013 0.00195 0.0
          0.0117 0.00195 0.0
          0.0104 0.00195 0.0
          0.0091 0.00195 0.0
          0.0078 0.00195 0.0
          0.0065 0.00195 0.0
          0.0052 0.00195 0.0
          0.0039 0.00195 0.0
          0.0026 0.00195 0.0
          0.0013 0.00195 0.0
          0 0.00195 0.0
          0.039 0.00065 0.0
          0.0377 0.00065 0.0
          0.0364 0.00065 0.0
          0.0351 0.00065 0.0
          0.0338 0.00065 0.0
          0.0325 0.00065 0.0
          0.0312 0.00065 0.0
          0.0299 0.00065 0.0
          0.0286 0.00065 0.0
          0.0273 0.00065 0.0
          0.026 0.00065 0.0
          0.0247 0.00065 0.0
          0.0234 0.00065 0.0
          0.0221 0.00065 0.0
          0.0208 0.00065 0.0
          0.0195 0.00065 0.0
          0.0182 0.00065 0.0
          0.0169 0.00065 0.0
          0.0156 0.00065 0.0
          0.0143 0.00065 0.0
          0.013 0.00065 0.0
          0.0117 0.00065 0.0
          0.0104 0.00065 0.0
          0.0091 0.00065 0.0
          0.0078 0.00065 0.0
          0.0065 0.00065 0.0
          0.0052 0.00065 0.0
          0.0039 0.00065 0.0
          0.0026 0.00065 0.0
          0.0013 0.00065 0.0
          0 0.00065 0.0
          0.039 -0.00065 0.0
          0.0377 -0.00065 0.0
          0.0364 -0.00065 0.0
          0.0351 -0.00065 0.0
          0.0338 -0.00065 0.0
          0.0325 -0.00065 0.0
          0.0312 -0.00065 0.0
          0.0299 -0.00065 0.0
          0.0286 -0.00065 0.0
          0.0273 -0.00065 0.0
          0.026 -0.00065 0.0
          0.0247 -0.00065 0.0
          0.0234 -0.00065 0.0
          0.0221 -0.00065 0.0
          0.0208 -0.00065 0.0
          0.0195 -0.00065 0.0
          0.0182 -0.00065 0.0
          0.0169 -0.00065 0.0
          0.0156 -0.00065 0.0
          0.0143 -0.00065 0.0
          0.013 -0.00065 0.0
          0.0117 -0.00065 0.0
          0.0104 -0.00065 0.0
          0.0091 -0.00065 0.0
          0.0078 -0.00065 0.0
          0.0065 -0.00065 0.0
          0.0052 -0.00065 0.0
          0.0039 -0.00065 0.0
          0.0026 -0.00065 0.0
          0.0013 -0.00065 0.0
          0 -0.00065 0.0
          0.039 -0.00195 0.0
          0.0377 -0.00195 0.0
          0.0364 -0.00195 0.0
          0.0351 -0.00195 0.0
          0.0338 -0.00195 0.0
          0.0325 -0.00195 0.0
          0.0312 -0.00195 0.0
          0.0299 -0.00195 0.0
          0.0286 -0.00195 0.0
          0.0273 -0.00195 0.0
          0.026 -0.00195 0.0
          0.0247 -0.00195 0.0
          0.0234 -0.00195 0.0
          0.0221 -0.00195 0.0
          0.0208 -0.00195 0.0
          0.0195 -0.00195 0.0
          0.0182 -0.00195 0.0
          0.0169 -0.00195 0.0
          0.0156 -0.00195 0.0
          0.0143 -0.00195 0.0
          0.013 -0.00195 0.0
          0.0117 -0.00195 0.0
          0.0104 -0.00195 0.0
          0.0091 -0.00195 0.0
          0.0078 -0.00195 0.0
          0.0065 -0.00195 0.0
          0.0052 -0.00195 0.0
          0.0039 -0.00195 0.0
          0.0026 -0.00195 0.0
          0.0013 -0.00195 0.0
          0 -0.00195 0.0
          0.039 -0.00325 0.0
          0.0377 -0.00325 0.0
          0.0364 -0.00325 0.0
          0.0351 -0.00325 0.0
          0.0338 -0.00325 0.0
          0.0325 -0.00325 0.0
          0.0312 -0.00325 0.0
          0.0299 -0.00325 0.0
          0.0286 -0.00325 0.0
          0.0273 -0.00325 0.0
          0.026 -0.00325 0.0
          0.0247 -0.00325 0.0
          0.0234 -0.00325 0.0
          0.0221 -0.00325 0.0
          0.0208 -0.00325 0.0
          0.0195 -0.00325 0.0
          0.0182 -0.00325 0.0
          0.0169 -0.00325 0.0
          0.0156 -0.00325 0.0
          0.0143 -0.00325 0.0
          0.013 -0.00325 0.0
          0.0117 -0.00325 0.0
          0.0104 -0.00325 0.0
          0.0091 -0.00325 0.0
          0.0078 -0.00325 0.0
          0.0065 -0.00325 0.0
          0.0052 -0.00325 0.0
          0.0039 -0.00325 0.0
          0.0026 -0.00325 0.0
          0.0013 -0.00325 0.0
          0 -0.00325 0.0
          0.039 -0.00455 0.0
          0.0377 -0.00455 0.0
          0.0364 -0.00455 0.0
          0.0351 -0.00455 0.0
          0.0338 -0.00455 0.0
          0.0325 -0.00455 0.0
          0.0312 -0.00455 0.0
          0.0299 -0.00455 0.0
          0.0286 -0.00455 0.0
          0.0273 -0.00455 0.0
          0.026 -0.00455 0.0
          0.0247 -0.00455 0.0
          0.0234 -0.00455 0.0
          0.0221 -0.00455 0.0
          0.0208 -0.00455 0.0
          0.0195 -0.00455 0.0
          0.0182 -0.00455 0.0
          0.0169 -0.00455 0.0
          0.0156 -0.00455 0.0
          0.0143 -0.00455 0.0
          0.013 -0.00455 0.0
          0.0117 -0.00455 0.0
          0.0104 -0.00455 0.0
          0.0091 -0.00455 0.0
          0.0078 -0.00455 0.0
          0.0065 -0.00455 0.0
          0.0052 -0.00455 0.0
          0.0039 -0.00455 0.0
          0.0026 -0.00455 0.0
          0.0013 -0.00455 0.0
          0 -0.00455 0.0
          0.039 -0.00585 0.0
          0.0377 -0.00585 0.0
          0.0364 -0.00585 0.0
          0.0351 -0.00585 0.0
          0.0338 -0.00585 0.0
          0.0325 -0.00585 0.0
          0.0312 -0.00585 0.0
          0.0299 -0.00585 0.0
          0.0286 -0.00585 0.0
          0.0273 -0.00585 0.0
          0.026 -0.00585 0.0
          0.0247 -0.00585 0.0
          0.0234 -0.00585 0.0
          0.0221 -0.00585 0.0
          0.0208 -0.00585 0.0
          0.0195 -0.00585 0.0
          0.0182 -0.00585 0.0
          0.0169 -0.00585 0.0
          0.0156 -0.00585 0.0
          0.0143 -0.00585 0.0
          0.013 -0.00585 0.0
          0.0117 -0.00585 0.0
          0.0104 -0.00585 0.0
          0.0091 -0.00585 0.0
          0.0078 -0.00585 0.0
          0.0065 -0.00585 0.0
          0.0052 -0.00585 0.0
          0.0039 -0.00585 0.0
          0.0026 -0.00585 0.0
          0.0013 -0.00585 0.0
          0 -0.00585 0.0
          0.039 -0.00715 0.0
          0.0377 -0.00715 0.0
          0.0364 -0.00715 0.0
          0.0351 -0.00715 0.0
          0.0338 -0.00715 0.0
          0.0325 -0.00715 0.0
          0.0312 -0.00715 0.0
          0.0299 -0.00715 0.0
          0.0286 -0.00715 0.0
          0.0273 -0.00715 0.0
          0.026 -0.00715 0.0
          0.0247 -0.00715 0.0
          0.0234 -0.00715 0.0
          0.0221 -0.00715 0.0
          0.0208 -0.00715 0.0
          0.0195 -0.00715 0.0
          0.0182 -0.00715 0.0
          0.0169 -0.00715 0.0
          0.0156 -0.00715 0.0
          0.0143 -0.00715 0.0
          0.013 -0.00715 0.0
          0.0117 -0.00715 0.0
          0.0104 -0.00715 0.0
          0.0091 -0.00715 0.0
          0.0078 -0.00715 0.0
          0.0065 -0.00715 0.0
          0.0052 -0.00715 0.0
          0.0039 -0.00715 0.0
          0.0026 -0.00715 0.0
          0.0013 -0.00715 0.0
          0 -0.00715 0.0
          0.039 -0.00845 0.0
          0.0377 -0.00845 0.0
          0.0364 -0.00845 0.0
          0.0351 -0.00845 0.0
          0.0338 -0.00845 0.0
          0.0325 -0.00845 0.0
          0.0312 -0.00845 0.0
          0.0299 -0.00845 0.0
          0.0286 -0.00845 0.0
          0.0273 -0.00845 0.0
          0.026 -0.00845 0.0
          0.0247 -0.00845 0.0
          0.0234 -0.00845 0.0
          0.0221 -0.00845 0.0
          0.0208 -0.00845 0.0
          0.0195 -0.00845 0.0
          0.0182 -0.00845 0.0
          0.0169 -0.00845 0.0
          0.0156 -0.00845 0.0
          0.0143 -0.00845 0.0
          0.013 -0.00845 0.0
          0.0117 -0.00845 0.0
          0.0104 -0.00845 0.0
          0.0091 -0.00845 0.0
          0.0078 -0.00845 0.0
          0.0065 -0.00845 0.0
          0.0052 -0.00845 0.0
          0.0039 -0.00845 0.0
          0.0026 -0.00845 0.0
          0.0013 -0.00845 0.0
          0 -0.00845 0.0
          0.039 -0.00975 0.0
          0.0377 -0.00975 0.0
          0.0364 -0.00975 0.0
          0.0351 -0.00975 0.0
          0.0338 -0.00975 0.0
          0.0325 -0.00975 0.0
          0.0312 -0.00975 0.0
          0.0299 -0.00975 0.0
          0.0286 -0.00975 0.0
          0.0273 -0.00975 0.0
          0.026 -0.00975 0.0
          0.0247 -0.00975 0.0
          0.0234 -0.00975 0.0
          0.0221 -0.00975 0.0
          0.0208 -0.00975 0.0
          0.0195 -0.00975 0.0
          0.0182 -0.00975 0.0
          0.0169 -0.00975 0.0
          0.0156 -0.00975 0.0
          0.0143 -0.00975 0.0
          0.013 -0.00975 0.0
          0.0117 -0.00975 0.0
          0.0104 -0.00975 0.0
          0.0091 -0.00975 0.0
          0.0078 -0.00975 0.0
          0.0065 -0.00975 0.0
          0.0052 -0.00975 0.0
          0.0039 -0.00975 0.0
          0.0026 -0.00975 0.0
          0.0013 -0.00975 0.0
          0 -0.00975 0.0
          0.039 -0.01105 0.0
          0.0377 -0.01105 0.0
          0.0364 -0.01105 0.0
          0.0351 -0.01105 0.0
          0.0338 -0.01105 0.0
          0.0325 -0.01105 0.0
          0.0312 -0.01105 0.0
          0.0299 -0.01105 0.0
          0.0286 -0.01105 0.0
          0.0273 -0.01105 0.0
          0.026 -0.01105 0.0
          0.0247 -0.01105 0.0
          0.0234 -0.01105 0.0
          0.0221 -0.01105 0.0
          0.0208 -0.01105 0.0
          0.0195 -0.01105 0.0
          0.0182 -0.01105 0.0
          0.0169 -0.01105 0.0
          0.0156 -0.01105 0.0
          0.0143 -0.01105 0.0
          0.013 -0.01105 0.0
          0.0117 -0.01105 0.0
          0.0104 -0.01105 0.0
          0.0091 -0.01105 0.0
          0.0078 -0.01105 0.0
          0.0065 -0.01105 0.0
          0.0052 -0.01105 0.0
          0.0039 -0.01105 0.0
          0.0026 -0.01105 0.0
          0.0013 -0.01105 0.0
          0 -0.01105 0.0
          0.039 -0.01235 0.0
          0.0377 -0.01235 0.0
          0.0364 -0.01235 0.0
          0.0351 -0.01235 0.0
          0.0338 -0.01235 0.0
          0.0325 -0.01235 0.0
          0.0312 -0.01235 0.0
          0.0299 -0.01235 0.0
          0.0286 -0.01235 0.0
          0.0273 -0.01235 0.0
          0.026 -0.01235 0.0
          0.0247 -0.01235 0.0
          0.0234 -0.01235 0.0
          0.0221 -0.01235 0.0
          0.0208 -0.01235 0.0
          0.0195 -0.01235 0.0
          0.0182 -0.01235 0.0
          0.0169 -0.01235 0.0
          0.0156 -0.01235 0.0
          0.0143 -0.01235 0.0
          0.013 -0.01235 0.0
          0.0117 -0.01235 0.0
          0.0104 -0.01235 0.0
          0.0091 -0.01235 0.0
          0.0078 -0.01235 0.0
          0.0065 -0.01235 0.0
          0.0052 -0.01235 0.0
          0.0039 -0.01235 0.0
          0.0026 -0.01235 0.0
          0.0013 -0.01235 0.0
          0 -0.01235 0.0
          0.039 -0.01365 0.0
          0.0377 -0.01365 0.0
          0.0364 -0.01365 0.0
          0.0351 -0.01365 0.0
          0.0338 -0.01365 0.0
          0.0325 -0.01365 0.0
          0.0312 -0.01365 0.0
          0.0299 -0.01365 0.0
          0.0286 -0.01365 0.0
          0.0273 -0.01365 0.0
          0.026 -0.01365 0.0
          0.0247 -0.01365 0.0
          0.0234 -0.01365 0.0
          0.0221 -0.01365 0.0
          0.0208 -0.01365 0.0
          0.0195 -0.01365 0.0
          0.0182 -0.01365 0.0
          0.0169 -0.01365 0.0
          0.0156 -0.01365 0.0
          0.0143 -0.01365 0.0
          0.013 -0.01365 0.0
          0.0117 -0.01365 0.0
          0.0104 -0.01365 0.0
          0.0091 -0.01365 0.0
          0.0078 -0.01365 0.0
          0.0065 -0.01365 0.0
          0.0052 -0.01365 0.0
          0.0039 -0.01365 0.0
          0.0026 -0.01365 0.0
          0.0013 -0.01365 0.0
          0 -0.01365 0.0
          0.039 -0.01495 0.0
          0.0377 -0.01495 0.0
          0.0364 -0.01495 0.0
          0.0351 -0.01495 0.0
          0.0338 -0.01495 0.0
          0.0325 -0.01495 0.0
          0.0312 -0.01495 0.0
          0.0299 -0.01495 0.0
          0.0286 -0.01495 0.0
          0.0273 -0.01495 0.0
          0.026 -0.01495 0.0
          0.0247 -0.01495 0.0
          0.0234 -0.01495 0.0