<?xml version="1.0"?>
<VTKFile type="UnstructuredGrid" version="0.1" byte_order="LittleEndian">
  <UnstructuredGrid>
    <Piece NumberOfPoints="961" NumberOfCells="900">
      <PointData Scalars="Temperature">
        <DataArray type="Float32" Name="Temperature" format="ascii">
          21.003
          21.0501
          21.0989
          21.1474
          21.1882
          21.2151
          21.2258
          21.2259
          21.2234
          21.2248
          21.2302
          21.2354
          21.2357
          21.2313
          21.2269
          21.2271
          21.2318
          21.2363
          21.2361
          21.2311
          21.2257
          21.2245
          21.2273
          21.2278
          21.2183
          21.194
          21.1575
          21.115
          21.074
          21.0366
          21.0022
          21.0486
          21.8061
          22.6179
          23.4314
          24.1357
          24.5771
          24.7376
          24.7027
          24.639
          24.6609
          24.7717
          24.8759
          24.8804
          24.7877
          24.695
          24.6977
          24.7953
          24.8912
          24.8884
          24.7853
          24.6762
          24.6571
          24.725
          24.7675
          24.6263
          24.2256
          23.5917
          22.8771
          22.1918
          21.5912
          21.0356
          21.0903
          22.5028
          24.0381
          25.8705
          27.3581
          28.3024
          28.4589
          28.1987
          27.9177
          27.9635
          28.3218
          28.6667
          28.6711
          28.3455
          28.0211
          28.0279
          28.3623
          28.6939
          28.6912
          28.3475
          27.9919
          27.9518
          28.2397
          28.5094
          28.3718
          27.501
          26.1492
          24.5182
          23.2223
          22.1017
          21.0663
          21.125
          23.0784
          25.2204
          27.7823
          32.3873
          32.3878
          32.3879
          32.3877
          30.3685
          30.4311
          32.6077
          32.608
          32.608
          32.6077
          30.5037
          30.5138
          32.6445
          32.6448
          32.6448
          32.6445
          30.4689
          30.4141
          32.4518
          32.452
          32.4519
          32.4514
          28.1497
          25.8861
          24.0832
          22.5326
          21.0924
          21.1502
          23.492
          26.0112
          28.9943
          32.3885
          32.3887
          32.3888
          32.3888
          31.8007
          31.874
          32.6088
          32.6088
          32.6088
          32.6088
          31.9534
          31.9657
          32.6456
          32.6456
          32.6456
          32.6456
          31.9171
          31.8529
          32.4529
          32.4529
          32.4528
          32.4526
          29.4256
          26.8246
          24.7227
          22.8619
          21.1125
          21.1661
          23.743
          26.4455
          29.3409
          32.3906
          32.3908
          32.3908
          32.3909
          32.2535
          32.3268
          32.6108
          32.6108
          32.6108
          32.6108
          32.4104
          32.4226
          32.6476
          32.6476
          32.6476
          32.6476
          32.3718
          32.3076
          32.4549
          32.4549
          32.4548
          32.4547
          29.8279
          27.3706
          25.1395
          23.0887
          21.1266
          21.1747
          23.8741
          26.6344
          29.4817
          32.3938
          32.3939
          32.394
          32.394
          32.398
          32.4712
          32.6138
          32.6138
          32.6138
          32.6138
          32.5561
          32.5684
          32.6506
          32.6506
          32.6506
          32.6506
          32.5168
          32.4527
          32.4581
          32.4581
          32.458
          32.4578
          30.01
          27.6399
          25.3839
          23.2301
          21.1355
          21.1789
          23.9351
          26.7196
          29.5438
          32.398
          32.3981
          32.3982
          32.3983
          32.4466
          32.5197
          32.6178
          32.6178
          32.6178
          32.6178
          32.605
          32.6172
          32.6546
          32.6546
          32.6546
          32.6546
          32.5655
          32.5014
          32.4623
          32.4623
          32.4622
          32.4621
          30.1008
          27.7793
          25.5174
          23.3119
          21.1408
          21.1808
          23.9632
          26.759
          29.5736
          32.4033
          32.4035
          32.4036
          32.4036
          32.4657
          32.5388
          32.6229
          32.6229
          32.6229
          32.6229
          32.6241
          32.6363
          32.6597
          32.6597
          32.6597
          32.6597
          32.5846
          32.5206
          32.4676
          32.4675
          32.4675
          32.4673
          30.1494
          27.8536
          25.5899
          23.3572
          21.1437
          21.1817
          23.9768
          26.7785
          29.5898
          32.4097
          32.4099
          32.4099
          32.41
          32.4764
          32.5493
          32.6289
          32.6289
          32.6289
          32.6289
          32.6345
          32.6468
          32.6657
          32.6657
          32.6657
          32.6657
          32.5952
          32.5312
          32.4739
          32.4739
          32.4738
          32.4737
          30.1775
          27.8946
          25.6297
          23.3822
          21.1454
          21.1822
          23.9841
          26.7895
          29.6005
          32.4172
          32.4173
          32.4174
          32.4174
          32.4851
          32.5579
          32.636
          32.636
          32.636
          32.636
          32.643
          32.6553
          32.6728
          32.6728
          32.6728
          32.6728
          32.6037
          32.5399
          32.4813
          32.4813
          32.4812
          32.4811
          30.1955
          27.9186
          25.6525
          23.3963
          21.1463
          21.1825
          23.9886
          26.797
          29.6091
          32.4257
          32.4259
          32.426
          32.426
          32.4939
          32.5666
          32.6441
          32.6441
          32.6441
          32.6441
          32.6516
          32.6638
          32.681
          32.681
          32.681
          32.6809
          32.6124
          32.5487
          32.4898
          32.4898
          32.4897
          32.4896
          30.2087
          27.9341
          25.6664
          23.4048
          21.1468
          21.1827
          23.9922
          26.8033
          29.6174
          32.4353
          32.4355
          32.4356
          32.4356
          32.5035
          32.576
          32.6533
          32.6533
          32.6533
          32.6533
          32.6609
          32.6731
          32.6901
          32.6901
          32.6901
          32.6901
          32.6218
          32.5582
          32.4993
          32.4993
          32.4992
          32.4991
          30.2198
          27.9455
          25.676
          23.4104
          21.1472
          21.1829
          23.9955
          26.8094
          29.6259
          32.446
          32.4462
          32.4463
          32.4463
          32.5141
          32.5864
          32.6634
          32.6634
          32.6634
          32.6634
          32.6711
          32.6833
          32.7003
          32.7003
          32.7003
          32.7003
          32.6322
          32.5687
          32.5099
          32.5099
          32.5098
          32.5097
          30.2303
          27.9552
          25.6836
          23.4148
          21.1475
          21.1831
          23.9989
          26.8158
          29.6351
          32.4578
          32.4579
          32.458
          32.4581
          32.5256
          32.5978
          32.6746
          32.6746
          32.6746
          32.6746
          32.6823
          32.6945
          32.7114
          32.7114
          32.7114
          32.7114
          32.6435
          32.5803
          32.5216
          32.5216
          32.5215
          32.5214
          30.2411
          27.9646
          25.6907
          23.4187
          21.1477
          21.1834
          24.0025
          26.8227
          29.645
          32.4706
          32.4708
          32.4709
          32.4709
          32.5383
          32.6102
          32.6868
          32.6868
          32.6868
          32.6868
          32.6945
          32.7067
          32.7237
          32.7237
          32.7237
          32.7237
          32.6559
          32.5928
          32.5343
          32.5343
          32.5342
          32.5341
          30.2528
          27.9746
          25.6983
          23.4229
          21.148
          21.1836
          24.0066
          26.8304
          29.6559
          32.4845
          32.4847
          32.4848
          32.4848
          32.5519
          32.6237
          32.7
          32.7
          32.7
          32.7001
          32.7077
          32.72
          32.7369
          32.7369
          32.7369
          32.7369
          32.6693
          32.6064
          32.5481
          32.5481
          32.548
          32.5479
          30.2659
          27.9863
          25.7073
          23.428
          21.1483
          21.1839
          24.0114
          26.8392
          29.6681
          32.4995
          32.4997
          32.4998
          32.4998
          32.5667
          32.6382
          32.7143
          32.7143
          32.7143
          32.7143
          32.7219
          32.7342
          32.7511
          32.7511
          32.7511
          32.7511
          32.6838
          32.6211
          32.5629
          32.5629
          32.5628
          32.5627
          30.2814
          28.0011
          25.7193
          23.4349
          21.1487
          21.1843
          24.0177
          26.8502
          29.6822
          32.5156
          32.5157
          32.5158
          32.5158
          32.5825
          32.6537
          32.7296
          32.7296
          32.7296
          32.7296
          32.7372
          32.7495
          32.7664
          32.7664
          32.7664
          32.7664
          32.6993
          32.6368
          32.5789
          32.5788
          32.5788
          32.5786
          30.3008
          28.0215
          25.7367
          23.4453
          21.1494
          21.185
          24.0269
          26.8653
          29.6996
          32.5327
          32.5329
          32.533
          32.533
          32.5993
          32.6703
          32.7458
          32.7458
          32.7458
          32.7458
          32.7535
          32.7658
          32.7827
          32.7827
          32.7827
          32.7827
          32.7158
          32.6535
          32.5958
          32.5958
          32.5957
          32.5956
          30.3269
          28.0521
          25.7642
          23.462
          21.1506
          21.1856
          24.0423
          26.8889
          29.7233
          32.5509
          32.5511
          32.5512
          32.5512
          32.6172
          32.6879
          32.7631
          32.7631
          32.7632
          32.7632
          32.7709
          32.7831
          32.8
          32.8
          32.8
          32.8
          32.7334
          32.6713
          32.6139
          32.6139
          32.6138
          32.6137
          30.3649
          28.1015
          25.8107
          23.4911
          21.1521
          21.1892
          24.0707
          26.9314
          29.7605
          32.5702
          32.5703
          32.5705
          32.5705
          32.6362
          32.7065
          32.7814
          32.7815
          32.7815
          32.7815
          32.7893
          32.8016
          32.8184
          32.8184
          32.8183
          32.8183
          32.752
          32.6902
          32.633
          32.633
          32.6329
          32.6327
          30.4247
          28.1858
          25.893
          23.5426
          21.1571
          21.1859
          24.1325
          27.0145
          29.8272
          32.5905
          32.5907
          32.5908
          32.5909
          32.6563
          32.7262
          32.8007
          32.8008
          32.8009
          32.8009
          32.8089
          32.8212
          32.8378
          32.8377
          32.8377
          32.8377
          32.7717
          32.7102
          32.6532
          32.6531
          32.653
          32.6529
          30.5238
          28.3357
          26.0425
          23.6415
          21.1562
          21.2271
          24.2507
          27.1946
          29.957
          32.6118
          32.612
          32.6123
          32.6125
          32.6775
          32.7469
          32.8209
          32.8211
          32.8213
          32.8214
          32.8302
          32.8424
          32.8582
          32.8582
          32.858
          32.8579
          32.7925
          32.7315
          32.6746
          32.6744
          32.6742
          32.674
          30.6937
          28.6052
          26.3272
          23.8165
          21.201
          21.1031
          24.5867
          27.5663
          30.2306
          32.6339
          32.6343
          32.635
          32.6354
          32.7002
          32.7688
          32.8418
          32.8422
          32.843
          32.8434
          32.8539
          32.866
          32.88
          32.8797
          32.8792
          32.879
          32.8147
          32.7544
          32.6973
          32.6969
          32.6962
          32.6958
          30.9786
          29.0979
          26.8528
          24.2335
          21.0814
          21.7935
          25.0811
          28.4824
          30.7566
          32.6559
          32.6572
          32.6593
          32.6604
          32.7254
          32.792
          32.8623
          32.8637
          32.8662
          32.8676
          32.8825
          32.8944
          32.9036
          32.9027
          32.9011
          32.9002
          32.8391
          32.7803
          32.7222
          32.721
          32.7188
          32.7176
          31.4208
          29.9382
          27.9784
          24.8342
          21.7808
          19.0771
          27.8272
          30.2188
          31.6025
          32.6763
          32.6791
          32.6866
          32.6893
          32.7571
          32.8168
          32.8805
          32.8838
          32.8929
          32.8963
          32.9225
          32.9331
          32.9303
          32.9282
          32.9224
          32.9203
          32.867
          32.814
          32.7509
          32.7481
          32.7404
          32.7376
          32.0263
          31.1892
          29.9747
          27.7167
          19.0612
          32.6434
          32.6595
          32.6716
          32.6828
          32.6906
          32.6975
          32.7122
          32.7407
          32.8028
          32.8463
          32.8847
          32.9026
          32.9208
          32.9455
          32.9851
          32.9926
          32.9708
          32.9548
          32.9432
          32.9319
          32.9034
          32.8635
          32.8024
          32.7737
          32.7586
          32.7511
          32.742
          32.73
          32.7181
          32.7058
          32.6896
          32.6499
          32.6611
          32.6724
          32.6837
          32.6957
          32.7107
          32.7321
          32.7647
          32.8051
          32.8494
          32.8887
          32.9223
          32.9502
          32.9758
          32.9949
          33.0023
          32.9968
          32.9833
          32.966
          32.9417
          32.9087
          32.8671
          32.8267
          32.7937
          32.7715
          32.7557
          32.7427
          32.7305
          32.7188
          32.7073
          32.696
          32.6571
          32.6642
          32.6738
          32.6856
          32.6999
          32.7181
          32.7422
          32.7735
          32.8116
          32.855
          32.9037
          32.9485
          32.9822
          33.0071
          33.0236
          33.0304
          33.0274
          33.0155
          32.9954
          32.9655
          32.9228
          32.8763
          32.8364
          32.804
          32.7789
          32.7597
          32.7443
          32.7313
          32.7198
          32.7103
          32.7032
          32.6624
          32.6655
          32.6745
          32.6864
          32.7014
          32.7205
          32.7452
          32.7764
          32.814
          32.858
          32.9127
          32.9642
          32.9996
          33.0248
          33.0409
          33.0476
          33.045
          33.0333
          33.0124
          32.9805
          32.9318
          32.8799
          32.8397
          32.8071
          32.7813
          32.7612
          32.7451
          32.7317
          32.7204
          32.7116
          32.7085
        </DataArray>
      </PointData>
      <CellData>
      </CellData>
      <Points>
        <DataArray type="Float32" NumberOfComponents="3" format="ascii">
          0.039 0.00195 0.0
          0.0377 0.00195 0.0
          0.0364 0.00195 0.0
          0.0351 0.00195 0.0
          0.0338 0.00195 0.0
          0.0325 0.00195 0.0
          0.0312 0.00195 0.0
          0.0299 0.00195 0.0
          0.0286 0.00195 0.0
          0.0273 0.00195 0.0
          0.026 0.00195 0.0
          0.0247 0.00195 0.0
          0.0234 0.00195 0.0
          0.0221 0.00195 0.0
          0.0208 0.00195 0.0
          0.0195 0.00195 0.0
          0.0182 0.00195 0.0
          0.0169 0.00195 0.0
          0.0156 0.00195 0.0
          0.0143 0.00195 0.0
          0.013 0.00195 0.0
          0.0117 0.00195 0.0
          0.0104 0.00195 0.0
          0.0091 0.00195 0.0
          0.0078 0.00195 0.0
          0.0065 0.00195 0.0
          0.0052 0.00195 0.0
          0.0039 0.00195 0.0
          0.0026 0.00195 0.0
          0.0013 0.00195 0.0
          0 0.00195 0.0
          0.039 0.00065 0.0
          0.0377 0.00065 0.0
          0.0364 0.00065 0.0
          0.0351 0.00065 0.0
          0.0338 0.00065 0.0
          0.0325 0.00065 0.0
          0.0312 0.00065 0.0
          0.0299 0.00065 0.0
          0.0286 0.00065 0.0
          0.0273 0.00065 0.0
          0.026 0.00065 0.0
          0.0247 0.00065 0.0
          0.0234 0.00065 0.0
          0.0221 0.00065 0.0
          0.0208 0.00065 0.0
          0.0195 0.00065 0.0
          0.0182 0.00065 0.0
          0.0169 0.00065 0.0
          0.0156 0.00065 0.0
          0.0143 0.00065 0.0
          0.013 0.00065 0.0
          0.0117 0.00065 0.0
          0.0104 0.00065 0.0
          0.0091 0.00065 0.0
          0.0078 0.00065 0.0
          0.0065 0.00065 0.0
          0.0052 0.00065 0.0
          0.0039 0.00065 0.0
          0.0026 0.00065 0.0
          0.0013 0.00065 0.0
          0 0.00065 0.0
          0.039 -0.00065 0.0
          0.0377 -0.00065 0.0
          0.0364 -0.00065 0.0
          0.0351 -0.00065 0.0
          0.0338 -0.00065 0.0
          0.0325 -0.00065 0.0
          0.0312 -0.00065 0.0
          0.0299 -0.00065 0.0
          0.0286 -0.00065 0.0
          0.0273 -0.00065 0.0
          0.026 -0.00065 0.0
          0.0247 -0.00065 0.0
          0.0234 -0.00065 0.0
          0.0221 -0.00065 0.0
          0.0208 -0.00065 0.0
          0.0195 -0.00065 0.0
          0.0182 -0.00065 0.0
          0.0169 -0.00065 0.0
          0.0156 -0.00065 0.0
          0.0143 -0.00065 0.0
          0.013 -0.00065 0.0
          0.0117 -0.00065 0.0
          0.0104 -0.00065 0.0
          0.0091 -0.00065 0.0
          0.0078 -0.00065 0.0
          0.0065 -0.00065 0.0
          0.0052 -0.00065 0.0
          0.0039 -0.00065 0.0
          0.0026 -0.00065 0.0
          0.0013 -0.00065 0.0
          0 -0.00065 0.0
          0.039 -0.00195 0.0
          0.0377 -0.00195 0.0
          0.0364 -0.00195 0.0
          0.0351 -0.00195 0.0
          0.0338 -0.00195 0.0
          0.0325 -0.00195 0.0
          0.0312 -0.00195 0.0
          0.0299 -0.00195 0.0
          0.0286 -0.00195 0.0
          0.0273 -0.00195 0.0
          0.026 -0.00195 0.0
          0.0247 -0.00195 0.0
          0.0234 -0.00195 0.0
          0.0221 -0.00195 0.0
          0.0208 -0.00195 0.0
          0.0195 -0.00195 0.0
          0.0182 -0.00195 0.0
          0.0169 -0.00195 0.0
          0.0156 -0.00195 0.0
          0.0143 -0.00195 0.0
          0.013 -0.00195 0.0
          0.0117 -0.00195 0.0
          0.0104 -0.00195 0.0
          0.0091 -0.00195 0.0
          0.0078 -0.00195 0.0
          0.0065 -0.00195 0.0
          0.0052 -0.00195 0.0
          0.0039 -0.00195 0.0
          0.0026 -0.00195 0.0
          0.0013 -0.00195 0.0
          0 -0.00195 0.0
          0.039 -0.00325 0.0
          0.0377 -0.00325 0.0
          0.0364 -0.00325 0.0
          0.0351 -0.00325 0.0
          0.0338 -0.00325 0.0
          0.0325 -0.00325 0.0
          0.0312 -0.00325 0.0
          0.0299 -0.00325 0.0
          0.0286 -0.00325 0.0
          0.0273 -0.00325 0.0
          0.026 -0.00325 0.0
          0.0247 -0.00325 0.0
          0.0234 -0.00325 0.0
          0.0221 -0.00325 0.0
          0.0208 -0.00325 0.0
          0.0195 -0.00325 0.0
          0.0182 -0.00325 0.0
          0.0169 -0.00325 0.0
          0.0156 -0.00325 0.0
          0.0143 -0.00325 0.0
          0.013 -0.00325 0.0
          0.0117 -0.00325 0.0
          0.0104 -0.00325 0.0
          0.0091 -0.00325 0.0
          0.0078 -0.00325 0.0
          0.0065 -0.00325 0.0
          0.0052 -0.00325 0.0
          0.0039 -0.00325 0.0
          0.0026 -0.00325 0.0
          0.0013 -0.00325 0.0
          0 -0.00325 0.0
          0.039 -0.00455 0.0
          0.0377 -0.00455 0.0
          0.0364 -0.00455 0.0
          0.0351 -0.00455 0.0
          0.0338 -0.00455 0.0
          0.0325 -0.00455 0.0
          0.0312 -0.00455 0.0
          0.0299 -0.00455 0.0
          0.0286 -0.00455 0.0
          0.0273 -0.00455 0.0
          0.026 -0.00455 0.0
          0.0247 -0.00455 0.0
          0.0234 -0.00455 0.0
          0.0221 -0.00455 0.0
          0.0208 -0.00455 0.0
          0.0195 -0.00455 0.0
          0.0182 -0.00455 0.0
          0.0169 -0.00455 0.0
          0.0156 -0.00455 0.0
          0.0143 -0.00455 0.0
          0.013 -0.00455 0.0
          0.0117 -0.00455 0.0
          0.0104 -0.00455 0.0
          0.0091 -0.00455 0.0
          0.0078 -0.00455 0.0
          0.0065 -0.00455 0.0
          0.0052 -0.00455 0.0
          0.0039 -0.00455 0.0
          0.0026 -0.00455 0.0
          0.0013 -0.00455 0.0
          0 -0.00455 0.0
          0.039 -0.00585 0.0
          0.0377 -0.00585 0.0
          0.0364 -0.00585 0.0
          0.0351 -0.00585 0.0
          0.0338 -0.00585 0.0
          0.0325 -0.00585 0.0
          0.0312 -0.00585 0.0
          0.0299 -0.00585 0.0
          0.0286 -0.00585 0.0
          0.0273 -0.00585 0.0
          0.026 -0.00585 0.0
          0.0247 -0.00585 0.0
          0.0234 -0.00585 0.0
          0.0221 -0.00585 0.0
          0.0208 -0.00585 0.0
          0.0195 -0.00585 0.0
          0.0182 -0.00585 0.0
          0.0169 -0.00585 0.0
          0.0156 -0.00585 0.0
          0.0143 -0.00585 0.0
          0.013 -0.00585 0.0
          0.0117 -0.00585 0.0
          0.0104 -0.00585 0.0
          0.0091 -0.00585 0.0
          0.0078 -0.00585 0.0
          0.0065 -0.00585 0.0
          0.0052 -0.00585 0.0
          0.0039 -0.00585 0.0
          0.0026 -0.00585 0.0
          0.0013 -0.00585 0.0
          0 -0.00585 0.0
          0.039 -0.00715 0.0
          0.0377 -0.00715 0.0
          0.0364 -0.00715 0.0
          0.0351 -0.00715 0.0
          0.0338 -0.00715 0.0
          0.0325 -0.00715 0.0
          0.0312 -0.00715 0.0
          0.0299 -0.00715 0.0
          0.0286 -0.00715 0.0
          0.0273 -0.00715 0.0
          0.026 -0.00715 0.0
          0.0247 -0.00715 0.0
          0.0234 -0.00715 0.0
          0.0221 -0.00715 0.0
          0.0208 -0.00715 0.0
          0.0195 -0.00715 0.0
          0.0182 -0.00715 0.0
          0.0169 -0.00715 0.0
          0.0156 -0.00715 0.0
          0.0143 -0.00715 0.0
          0.013 -0.00715 0.0
          0.0117 -0.00715 0.0
          0.0104 -0.00715 0.0
          0.0091 -0.00715 0.0
          0.0078 -0.00715 0.0
          0.0065 -0.00715 0.0
          0.0052 -0.00715 0.0
          0.0039 -0.00715 0.0
          0.0026 -0.00715 0.0
          0.0013 -0.00715 0.0
          0 -0.00715 0.0
          0.039 -0.00845 0.0
          0.0377 -0.00845 0.0
          0.0364 -0.00845 0.0
          0.0351 -0.00845 0.0
          0.0338 -0.00845 0.0
          0.0325 -0.00845 0.0
          0.0312 -0.00845 0.0
          0.0299 -0.00845 0.0
          0.0286 -0.00845 0.0
          0.0273 -0.00845 0.0
          0.026 -0.00845 0.0
          0.0247 -0.00845 0.0
          0.0234 -0.00845 0.0
          0.0221 -0.00845 0.0
          0.0208 -0.00845 0.0
          0.0195 -0.00845 0.0
          0.0182 -0.00845 0.0
          0.0169 -0.00845 0.0
          0.0156 -0.00845 0.0
          0.0143 -0.00845 0.0
          0.013 -0.00845 0.0
          0.0117 -0.00845 0.0
          0.0104 -0.00845 0.0
          0.0091 -0.00845 0.0
          0.0078 -0.00845 0.0
          0.0065 -0.00845 0.0
          0.0052 -0.00845 0.0
          0.0039 -0.00845 0.0
          0.0026 -0.00845 0.0
          0.0013 -0.00845 0.0
          0 -0.00845 0.0
          0.039 -0.00975 0.0
          0.0377 -0.00975 0.0
          0.0364 -0.00975 0.0
          0.0351 -0.00975 0.0
          0.0338 -0.00975 0.0
          0.0325 -0.00975 0.0
          0.0312 -0.00975 0.0
          0.0299 -0.00975 0.0
          0.0286 -0.00975 0.0
          0.0273 -0.00975 0.0
          0.026 -0.00975 0.0
          0.0247 -0.00975 0.0
          0.0234 -0.00975 0.0
          0.0221 -0.00975 0.0
          0.0208 -0.00975 0.0
          0.0195 -0.00975 0.0
          0.0182 -0.00975 0.0
          0.0169 -0.00975 0.0
          0.0156 -0.00975 0.0
          0.0143 -0.00975 0.0
          0.013 -0.00975 0.0
          0.0117 -0.00975 0.0
          0.0104 -0.00975 0.0
          0.0091 -0.00975 0.0
          0.0078 -0.00975 0.0
          0.0065 -0.00975 0.0
          0.0052 -0.00975 0.0
          0.0039 -0.00975 0.0
          0.0026 -0.00975 0.0
          0.0013 -0.00975 0.0
          0 -0.00975 0.0
          0.039 -0.01105 0.0
          0.0377 -0.01105 0.0
          0.0364 -0.01105 0.0
          0.0351 -0.01105 0.0
          0.0338 -0.01105 0.0
          0.0325 -0.01105 0.0
          0.0312 -0.01105 0.0
          0.0299 -0.01105 0.0
          0.0286 -0.01105 0.0
          0.0273 -0.01105 0.0
          0.026 -0.01105 0.0
          0.0247 -0.01105 0.0
          0.0234 -0.01105 0.0
          0.0221 -0.01105 0.0
          0.0208 -0.01105 0.0
          0.0195 -0.01105 0.0
          0.0182 -0.01105 0.0
          0.0169 -0.01105 0.0
          0.0156 -0.01105 0.0
          0.0143 -0.01105 0.0
          0.013 -0.01105 0.0
          0.0117 -0.01105 0.0
          0.0104 -0.01105 0.0
          0.0091 -0.01105 0.0
          0.0078 -0.01105 0.0
          0.0065 -0.01105 0.0
          0.0052 -0.01105 0.0
          0.0039 -0.01105 0.0
          0.0026 -0.01105 0.0
          0.0013 -0.01105 0.0
          0 -0.01105 0.0
          0.039 -0.01235 0.0
          0.0377 -0.01235 0.0
          0.0364 -0.01235 0.0
          0.0351 -0.01235 0.0
          0.0338 -0.01235 0.0
          0.0325 -0.01235 0.0
          0.0312 -0.01235 0.0
          0.0299 -0.01235 0.0
          0.0286 -0.01235 0.0
          0.0273 -0.01235 0.0
          0.026 -0.01235 0.0
          0.0247 -0.01235 0.0
          0.0234 -0.01235 0.0
          0.0221 -0.01235 0.0
          0.0208 -0.01235 0.0
          0.0195 -0.01235 0.0
          0.0182 -0.01235 0.0
          0.0169 -0.01235 0.0
          0.0156 -0.01235 0.0
          0.0143 -0.01235 0.0
          0.013 -0.01235 0.0
          0.0117 -0.01235 0.0
          0.0104 -0.01235 0.0
          0.0091 -0.01235 0.0
          0.0078 -0.01235 0.0
          0.0065 -0.01235 0.0
          0.0052 -0.01235 0.0
          0.0039 -0.01235 0.0
          0.0026 -0.01235 0.0
          0.0013 -0.01235 0.0
          0 -0.01235 0.0
          0.039 -0.01365 0.0
          0.0377 -0.01365 0.0
          0.0364 -0.01365 0.0
          0.0351 -0.01365 0.0
          0.0338 -0.01365 0.0
          0.0325 -0.01365 0.0
          0.0312 -0.01365 0.0
          0.0299 -0.01365 0.0
          0.0286 -0.01365 0.0
          0.0273 -0.01365 0.0
          0.026 -0.01365 0.0
          0.0247 -0.01365 0.0
          0.0234 -0.01365 0.0
          0.0221 -0.01365 0.0
          0.0208 -0.01365 0.0
          0.0195 -0.01365 0.0
          0.0182 -0.01365 0.0
          0.0169 -0.01365 0.0
          0.0156 -0.01365 0.0
          0.0143 -0.01365 0.0
          0.013 -0.01365 0.0
          0.0117 -0.01365 0.0
          0.0104 -0.01365 0.0
          0.0091 -0.01365 0.0
          0.0078 -0.01365 0.0
          0.0065 -0.01365 0.0
          0.0052 -0.01365 0.0
          0.0039 -0.01365 0.0
          0.0026 -0.01365 0.0
          0.0013 -0.01365 0.0
          0 -0.01365 0.0
          0.039 -0.01495 0.0
          0.0377 -0.01495 0.0
          0.0364 -0.01495 0.0
          0.0351 -0.01495 0.0
          0.0338 -0.01495 0.0
          0.0325 -0.01495 0.0
          0.0312 -0.01495 0.0
          0.0299 -0.01495 0.0
          0.0286 -0.01495 0.0
          0.0273 -0.01495 0.0
          0.026 -0.01495 0.0
          0.0247 -0.01495 0.0
          0.0234 -0.01495 0.0
          0.0221 -0.01495 0.0