<?xml version="1.0"?>
<VTKFile type="UnstructuredGrid" version="0.1" byte_order="LittleEndian">
  <UnstructuredGrid>
    <Piece NumberOfPoints="961" NumberOfCells="900">
      <PointData Scalars="Temperature">
        <DataArray type="Float32" Name="Temperature" format="ascii">
          21.0013
          21.0217
          21.0429
          21.064
          21.0817
          21.0934
          21.0982
          21.0985
          21.0977
          21.0988
          21.1015
          21.104
          21.1043
          21.1024
          21.1006
          21.1007
          21.1029
          21.1049
          21.1048
          21.1023
          21.0996
          21.0987
          21.0997
          21.0997
          21.0955
          21.0848
          21.0688
          21.0502
          21.0323
          21.016
          21.001
          21.0211
          21.3497
          21.7021
          22.0555
          22.3617
          22.554
          22.6253
          22.6135
          22.5918
          22.6087
          22.6639
          22.7138
          22.7177
          22.6777
          22.6379
          22.6406
          22.6852
          22.7283
          22.7259
          22.677
          22.6232
          22.6084
          22.633
          22.6487
          22.5855
          22.4098
          22.1323
          21.8197
          21.5202
          21.258
          21.0155
          21.0392
          21.6521
          22.3187
          23.1151
          23.7619
          24.1731
          24.2426
          24.1354
          24.0248
          24.0629
          24.2339
          24.3937
          24.3975
          24.2545
          24.1128
          24.1195
          24.271
          24.4199
          24.4176
          24.2589
          24.09
          24.0566
          24.1726
          24.2855
          24.224
          23.8422
          23.2503
          22.5366
          21.9701
          21.4808
          21.029
          21.0542
          21.902
          22.8322
          23.9459
          25.9502
          25.9505
          25.9505
          25.9504
          25.0963
          25.1504
          26.1449
          26.1451
          26.1451
          26.1449
          25.2144
          25.2242
          26.1811
          26.1812
          26.1812
          26.1811
          25.1867
          25.1392
          26.0107
          26.0108
          26.0107
          26.0105
          24.1252
          23.1343
          22.3461
          21.6689
          21.0403
          21.0652
          22.0817
          23.1759
          24.4731
          25.9511
          25.9512
          25.9512
          25.9512
          25.7227
          25.7875
          26.1457
          26.1458
          26.1458
          26.1457
          25.8583
          25.8703
          26.1819
          26.1819
          26.1819
          26.1819
          25.829
          25.7722
          26.0115
          26.0115
          26.0114
          26.0114
          24.6838
          23.5447
          22.6256
          21.8128
          21.0491
          21.0721
          22.1909
          23.365
          24.6244
          25.953
          25.9531
          25.9531
          25.9531
          25.9225
          25.9873
          26.1476
          26.1476
          26.1476
          26.1476
          26.0622
          26.0743
          26.1837
          26.1838
          26.1838
          26.1837
          26.0306
          25.9738
          26.0134
          26.0134
          26.0134
          26.0133
          24.8604
          23.7839
          22.808
          21.912
          21.0553
          21.0759
          22.2483
          23.4479
          24.6868
          25.9561
          25.9561
          25.9562
          25.9562
          25.9876
          26.0524
          26.1506
          26.1506
          26.1506
          26.1506
          26.1286
          26.1407
          26.1868
          26.1868
          26.1868
          26.1867
          26.0963
          26.0395
          26.0164
          26.0164
          26.0164
          26.0163
          24.9412
          23.9025
          22.9154
          21.9741
          21.0592
          21.0777
          22.2753
          23.486
          24.7155
          25.9603
          25.9603
          25.9604
          25.9604
          26.0112
          26.076
          26.1547
          26.1547
          26.1547
          26.1547
          26.1526
          26.1647
          26.1909
          26.1909
          26.1909
          26.1909
          26.1201
          26.0633
          26.0206
          26.0206
          26.0206
          26.0205
          24.9827
          23.9648
          22.9746
          22.0102
          21.0615
          21.0786
          22.2883
          23.5047
          24.7307
          25.9656
          25.9657
          25.9657
          25.9657
          26.0226
          26.0874
          26.16
          26.16
          26.16
          26.16
          26.1641
          26.1761
          26.1961
          26.1961
          26.1961
          26.1961
          26.1315
          26.0748
          26.026
          26.0259
          26.0259
          26.0259
          25.0064
          23.999
          23.0074
          22.0306
          21.0628
          21.0791
          22.2952
          23.515
          24.7405
          25.9721
          25.9721
          25.9722
          25.9722
          26.031
          26.0957
          26.1663
          26.1663
          26.1663
          26.1663
          26.1724
          26.1845
          26.2025
          26.2025
          26.2025
          26.2025
          26.1398
          26.0831
          26.0324
          26.0324
          26.0324
          26.0323
          25.0216
          24.0191
          23.0263
          22.0423
          21.0636
          21.0793
          22.2995
          23.522
          24.7484
          25.9797
          25.9798
          25.9798
          25.9798
          26.0391
          26.1038
          26.1738
          26.1738
          26.1738
          26.1738
          26.1805
          26.1925
          26.21
          26.21
          26.21
          26.21
          26.148
          26.0913
          26.04
          26.04
          26.04
          26.0399
          25.0329
          24.0322
          23.038
          22.0494
          21.064
          21.0795
          22.3028
          23.5278
          24.756
          25.9884
          25.9885
          25.9885
          25.9886
          26.048
          26.1126
          26.1824
          26.1824
          26.1824
          26.1824
          26.1893
          26.2013
          26.2186
          26.2186
          26.2186
          26.2186
          26.1568
          26.1002
          26.0487
          26.0487
          26.0487
          26.0486
          25.0427
          24.042
          23.0461
          22.0541
          21.0644
          21.0797
          22.3058
          23.5334
          24.7639
          25.9983
          25.9984
          25.9984
          25.9984
          26.0579
          26.1225
          26.1921
          26.1921
          26.1921
          26.1921
          26.1991
          26.2111
          26.2283
          26.2283
          26.2283
          26.2283
          26.1666
          26.1101
          26.0586
          26.0586
          26.0585
          26.0585
          25.0521
          24.0504
          23.0526
          22.0578
          21.0646
          21.0799
          22.3089
          23.5393
          24.7724
          26.0094
          26.0094
          26.0095
          26.0095
          26.0689
          26.1334
          26.203
          26.203
          26.203
          26.203
          26.2099
          26.222
          26.2391
          26.2391
          26.2391
          26.2391
          26.1775
          26.121
          26.0696
          26.0696
          26.0695
          26.0695
          25.0618
          24.0585
          23.0585
          22.061
          21.0648
          21.0801
          22.3122
          23.5457
          24.7817
          26.0215
          26.0216
          26.0216
          26.0216
          26.081
          26.1454
          26.2149
          26.2149
          26.2149
          26.2149
          26.2219
          26.234
          26.2511
          26.2511
          26.2511
          26.2511
          26.1896
          26.1331
          26.0817
          26.0817
          26.0817
          26.0816
          25.0722
          24.0668
          23.0645
          22.0642
          21.065
          21.0803
          22.3159
          23.5526
          24.7918
          26.0348
          26.0349
          26.0349
          26.035
          26.0942
          26.1586
          26.228
          26.228
          26.228
          26.228
          26.235
          26.247
          26.2642
          26.2642
          26.2642
          26.2642
          26.2027
          26.1463
          26.095
          26.095
          26.0949
          26.0949
          25.0835
          24.0759
          23.071
          22.0677
          21.0652
          21.0806
          22.3198
          23.5602
          24.8029
          26.0493
          26.0493
          26.0494
          26.0494
          26.1086
          26.1729
          26.2422
          26.2422
          26.2422
          26.2422
          26.2492
          26.2612
          26.2784
          26.2784
          26.2784
          26.2784
          26.217
          26.1607
          26.1094
          26.1094
          26.1093
          26.1093
          25.096
          24.0861
          23.0784
          22.0717
          21.0654
          21.0809
          22.3243
          23.5687
          24.8151
          26.0649
          26.0649
          26.065
          26.065
          26.1241
          26.1883
          26.2575
          26.2575
          26.2575
          26.2575
          26.2645
          26.2766
          26.2937
          26.2937
          26.2937
          26.2937
          26.2324
          26.1761
          26.1249
          26.1249
          26.1249
          26.1248
          25.1101
          24.0982
          23.0874
          22.0767
          21.0658
          21.0812
          22.3297
          23.5785
          24.8286
          26.0816
          26.0816
          26.0817
          26.0817
          26.1407
          26.2048
          26.274
          26.274
          26.274
          26.274
          26.281
          26.293
          26.3102
          26.3102
          26.3102
          26.3102
          26.2489
          26.1927
          26.1416
          26.1416
          26.1415
          26.1415
          25.1264
          24.1131
          23.0991
          22.0833
          21.0662
          21.0817
          22.3364
          23.5904
          24.844
          26.0994
          26.0995
          26.0995
          26.0996
          26.1585
          26.2225
          26.2915
          26.2915
          26.2915
          26.2915
          26.2985
          26.3106
          26.3277
          26.3277
          26.3277
          26.3277
          26.2665
          26.2104
          26.1594
          26.1594
          26.1593
          26.1593
          25.1463
          24.133
          23.1157
          22.093
          21.0668
          21.0821
          22.3462
          23.6065
          24.8629
          26.1184
          26.1185
          26.1186
          26.1186
          26.1774
          26.2412
          26.3102
          26.3102
          26.3102
          26.3102
          26.3172
          26.3293
          26.3464
          26.3464
          26.3464
          26.3464
          26.2853
          26.2293
          26.1783
          26.1783
          26.1783
          26.1782
          25.1722
          24.1619
          23.141
          22.1084
          21.0677
          21.0839
          22.362
          23.6314
          24.8882
          26.1386
          26.1386
          26.1387
          26.1387
          26.1974
          26.2611
          26.3299
          26.33
          26.33
          26.33
          26.3371
          26.3492
          26.3662
          26.3662
          26.3662
          26.3662
          26.3052
          26.2493
          26.1984
          26.1984
          26.1983
          26.1983
          25.2083
          24.2069
          23.1829
          22.1341
          21.0701
          21.0826
          22.3929
          23.6749
          24.9273
          26.1598
          26.1599
          26.16
          26.16
          26.2186
          26.2822
          26.3508
          26.3508
          26.3509
          26.351
          26.3583
          26.3704
          26.3872
          26.3871
          26.3871
          26.3871
          26.3263
          26.2705
          26.2197
          26.2196
          26.2195
          26.2195
          25.2628
          24.2819
          23.2554
          22.1814
          21.0698
          21.1014
          22.4494
          23.7624
          24.9953
          26.1821
          26.1822
          26.1825
          26.1826
          26.241
          26.3043
          26.3727
          26.3728
          26.373
          26.3732
          26.3812
          26.3932
          26.4093
          26.4092
          26.4091
          26.409
          26.3486
          26.2931
          26.2421
          26.242
          26.2418
          26.2417
          25.3498
          24.4115
          23.3894
          22.2632
          21.0903
          21.0457
          22.6042
          23.9365
          25.1284
          26.2053
          26.2056
          26.2062
          26.2065
          26.265
          26.3277
          26.3953
          26.3957
          26.3964
          26.3968
          26.4066
          26.4186
          26.4328
          26.4326
          26.4321
          26.4318
          26.3724
          26.3173
          26.266
          26.2657
          26.2651
          26.2647
          25.4894
          24.6426
          23.6328
          22.4548
          21.0362
          21.3571
          22.8306
          24.3563
          25.3756
          26.2287
          26.2297
          26.2315
          26.2325
          26.2914
          26.3525
          26.4178
          26.4191
          26.4215
          26.4228
          26.4371
          26.4487
          26.4582
          26.4573
          26.4558
          26.455
          26.3985
          26.3446
          26.2919
          26.2909
          26.2891
          26.288
          25.7006
          25.0317
          24.1485
          22.73
          21.3534
          20.1329
          24.0724
          25.1467
          25.7676
          26.2508
          26.2532
          26.2596
          26.2619
          26.3243
          26.3793
          26.4382
          26.4413
          26.45
          26.4532
          26.479
          26.4894
          26.4867
          26.4847
          26.4792
          26.4772
          26.4284
          26.3796
          26.3214
          26.319
          26.3124
          26.3099
          25.9864
          25.6081
          25.0597
          24.0394
          20.1212
          26.2483
          26.2558
          26.262
          26.2679
          26.2693
          26.2732
          26.2858
          26.3125
          26.3712
          26.4117
          26.4459
          26.462
          26.4795
          26.5041
          26.5441
          26.5514
          26.5289
          26.5128
          26.5019
          26.4923
          26.4677
          26.4305
          26.3724
          26.3454
          26.3322
          26.3277
          26.3249
          26.3179
          26.3112
          26.3047
          26.297
          26.2513
          26.2566
          26.2626
          26.2688
          26.2764
          26.2876
          26.3061
          26.3359
          26.3736
          26.4149
          26.4516
          26.4832
          26.51
          26.5351
          26.554
          26.5612
          26.5557
          26.5426
          26.5262
          26.5037
          26.473
          26.4342
          26.3964
          26.3658
          26.3465
          26.3344
          26.3257
          26.3183
          26.3115
          26.3054
          26.3
          26.2546
          26.2582
          26.2636
          26.271
          26.2811
          26.2956
          26.3165
          26.3448
          26.3801
          26.4209
          26.4672
          26.5102
          26.5426
          26.5668
          26.5828
          26.5896
          26.5867
          26.5754
          26.5563
          26.5281
          26.4875
          26.4434
          26.4062
          26.3766
          26.3545
          26.339
          26.3277
          26.3191
          26.3121
          26.3068
          26.3032
          26.257
          26.2588
          26.2641
          26.2719
          26.2828
          26.2982
          26.3196
          26.3477
          26.3825
          26.424
          26.4764
          26.5261
          26.5603
          26.5846
          26.6002
          26.6069
          26.6045
          26.5934
          26.5736
          26.5433
          26.4966
          26.4471
          26.4095
          26.3797
          26.3571
          26.3406
          26.3285
          26.3194
          26.3124
          26.3074
          26.3056
        </DataArray>
      </PointData>
      <CellData>
      </CellData>
      <Points>
        <DataArray type="Float32" NumberOfComponents="3" format="ascii">
          0.039 0.00195 0.0
          0.0377 0.00195 0.0
          0.0364 0.00195 0.0
          0.0351 0.00195 0.0
          0.0338 0.00195 0.0
          0.0325 0.00195 0.0
          0.0312 0.00195 0.0
          0.0299 0.00195 0.0
          0.0286 0.00195 0.0
          0.0273 0.00195 0.0
          0.026 0.00195 0.0
          0.0247 0.00195 0.0
          0.0234 0.00195 0.0
          0.0221 0.00195 0.0
          0.0208 0.00195 0.0
          0.0195 0.00195 0.0
          0.0182 0.00195 0.0
          0.0169 0.00195 0.0
          0.0156 0.00195 0.0
          0.0143 0.00195 0.0
          0.013 0.00195 0.0
          0.0117 0.00195 0.0
          0.0104 0.00195 0.0
          0.0091 0.00195 0.0
          0.0078 0.00195 0.0
          0.0065 0.00195 0.0
          0.0052 0.00195 0.0
          0.0039 0.00195 0.0
          0.0026 0.00195 0.0
          0.0013 0.00195 0.0
          0 0.00195 0.0
          0.039 0.00065 0.0
          0.0377 0.00065 0.0
          0.0364 0.00065 0.0
          0.0351 0.00065 0.0
          0.0338 0.00065 0.0
          0.0325 0.00065 0.0
          0.0312 0.00065 0.0
          0.0299 0.00065 0.0
          0.0286 0.00065 0.0
          0.0273 0.00065 0.0
          0.026 0.00065 0.0
          0.0247 0.00065 0.0
          0.0234 0.00065 0.0
          0.0221 0.00065 0.0
          0.0208 0.00065 0.0
          0.0195 0.00065 0.0
          0.0182 0.00065 0.0
          0.0169 0.00065 0.0
          0.0156 0.00065 0.0
          0.0143 0.00065 0.0
          0.013 0.00065 0.0
          0.0117 0.00065 0.0
          0.0104 0.00065 0.0
          0.0091 0.00065 0.0
          0.0078 0.00065 0.0
          0.0065 0.00065 0.0
          0.0052 0.00065 0.0
          0.0039 0.00065 0.0
          0.0026 0.00065 0.0
          0.0013 0.00065 0.0
          0 0.00065 0.0
          0.039 -0.00065 0.0
          0.0377 -0.00065 0.0
          0.0364 -0.00065 0.0
          0.0351 -0.00065 0.0
          0.0338 -0.00065 0.0
          0.0325 -0.00065 0.0
          0.0312 -0.00065 0.0
          0.0299 -0.00065 0.0
          0.0286 -0.00065 0.0
          0.0273 -0.00065 0.0
          0.026 -0.00065 0.0
          0.0247 -0.00065 0.0
          0.0234 -0.00065 0.0
          0.0221 -0.00065 0.0
          0.0208 -0.00065 0.0
          0.0195 -0.00065 0.0
          0.0182 -0.00065 0.0
          0.0169 -0.00065 0.0
          0.0156 -0.00065 0.0
          0.0143 -0.00065 0.0
          0.013 -0.00065 0.0
          0.0117 -0.00065 0.0
          0.0104 -0.00065 0.0
          0.0091 -0.00065 0.0
          0.0078 -0.00065 0.0
          0.0065 -0.00065 0.0
          0.0052 -0.00065 0.0
          0.0039 -0.00065 0.0
          0.0026 -0.00065 0.0
          0.0013 -0.00065 0.0
          0 -0.00065 0.0
          0.039 -0.00195 0.0
          0.0377 -0.00195 0.0
          0.0364 -0.00195 0.0
          0.0351 -0.00195 0.0
          0.0338 -0.00195 0.0
          0.0325 -0.00195 0.0
          0.0312 -0.00195 0.0
          0.0299 -0.00195 0.0
          0.0286 -0.00195 0.0
          0.0273 -0.00195 0.0
          0.026 -0.00195 0.0
          0.0247 -0.00195 0.0
          0.0234 -0.00195 0.0
          0.0221 -0.00195 0.0
          0.0208 -0.00195 0.0
          0.0195 -0.00195 0.0
          0.0182 -0.00195 0.0
          0.0169 -0.00195 0.0
          0.0156 -0.00195 0.0
          0.0143 -0.00195 0.0
          0.013 -0.00195 0.0
          0.0117 -0.00195 0.0
          0.0104 -0.00195 0.0
          0.0091 -0.00195 0.0
          0.0078 -0.00195 0.0
          0.0065 -0.00195 0.0
          0.0052 -0.00195 0.0
          0.0039 -0.00195 0.0
          0.0026 -0.00195 0.0
          0.0013 -0.00195 0.0
          0 -0.00195 0.0
          0.039 -0.00325 0.0
          0.0377 -0.00325 0.0
          0.0364 -0.00325 0.0
          0.0351 -0.00325 0.0
          0.0338 -0.00325 0.0
          0.0325 -0.00325 0.0
          0.0312 -0.00325 0.0
          0.0299 -0.00325 0.0
          0.0286 -0.00325 0.0
          0.0273 -0.00325 0.0
          0.026 -0.00325 0.0
          0.0247 -0.00325 0.0
          0.0234 -0.00325 0.0
          0.0221 -0.00325 0.0
          0.0208 -0.00325 0.0
          0.0195 -0.00325 0.0
          0.0182 -0.00325 0.0
          0.0169 -0.00325 0.0
          0.0156 -0.00325 0.0
          0.0143 -0.00325 0.0
          0.013 -0.00325 0.0
          0.0117 -0.00325 0.0
          0.0104 -0.00325 0.0
          0.0091 -0.00325 0.0
          0.0078 -0.00325 0.0
          0.0065 -0.00325 0.0
          0.0052 -0.00325 0.0
          0.0039 -0.00325 0.0
          0.0026 -0.00325 0.0
          0.0013 -0.00325 0.0
          0 -0.00325 0.0
          0.039 -0.00455 0.0
          0.0377 -0.00455 0.0
          0.0364 -0.00455 0.0
          0.0351 -0.00455 0.0
          0.0338 -0.00455 0.0
          0.0325 -0.00455 0.0
          0.0312 -0.00455 0.0
          0.0299 -0.00455 0.0
          0.0286 -0.00455 0.0
          0.0273 -0.00455 0.0
          0.026 -0.00455 0.0
          0.0247 -0.00455 0.0
          0.0234 -0.00455 0.0
          0.0221 -0.00455 0.0
          0.0208 -0.00455 0.0
          0.0195 -0.00455 0.0
          0.0182 -0.00455 0.0
          0.0169 -0.00455 0.0
          0.0156 -0.00455 0.0
          0.0143 -0.00455 0.0
          0.013 -0.00455 0.0
          0.0117 -0.00455 0.0
          0.0104 -0.00455 0.0
          0.0091 -0.00455 0.0
          0.0078 -0.00455 0.0
          0.0065 -0.00455 0.0
          0.0052 -0.00455 0.0
          0.0039 -0.00455 0.0
          0.0026 -0.00455 0.0
          0.0013 -0.00455 0.0
          0 -0.00455 0.0
          0.039 -0.00585 0.0
          0.0377 -0.00585 0.0
          0.0364 -0.00585 0.0
          0.0351 -0.00585 0.0
          0.0338 -0.00585 0.0
          0.0325 -0.00585 0.0
          0.0312 -0.00585 0.0
          0.0299 -0.00585 0.0
          0.0286 -0.00585 0.0
          0.0273 -0.00585 0.0
          0.026 -0.00585 0.0
          0.0247 -0.00585 0.0
          0.0234 -0.00585 0.0
          0.0221 -0.00585 0.0
          0.0208 -0.00585 0.0
          0.0195 -0.00585 0.0
          0.0182 -0.00585 0.0
          0.0169 -0.00585 0.0
          0.0156 -0.00585 0.0
          0.0143 -0.00585 0.0
          0.013 -0.00585 0.0
          0.0117 -0.00585 0.0
          0.0104 -0.00585 0.0
          0.0091 -0.00585 0.0
          0.0078 -0.00585 0.0
          0.0065 -0.00585 0.0
          0.0052 -0.00585 0.0
          0.0039 -0.00585 0.0
          0.0026 -0.00585 0.0
          0.0013 -0.00585 0.0
          0 -0.00585 0.0
          0.039 -0.00715 0.0
          0.0377 -0.00715 0.0
          0.0364 -0.00715 0.0
          0.0351 -0.00715 0.0
          0.0338 -0.00715 0.0
          0.0325 -0.00715 0.0
          0.0312 -0.00715 0.0
          0.0299 -0.00715 0.0
          0.0286 -0.00715 0.0
          0.0273 -0.00715 0.0
          0.026 -0.00715 0.0
          0.0247 -0.00715 0.0
          0.0234 -0.00715 0.0
          0.0221 -0.00715 0.0
          0.0208 -0.00715 0.0
          0.0195 -0.00715 0.0
          0.0182 -0.00715 0.0
          0.0169 -0.00715 0.0
          0.0156 -0.00715 0.0
          0.0143 -0.00715 0.0
          0.013 -0.00715 0.0
          0.0117 -0.00715 0.0
          0.0104 -0.00715 0.0
          0.0091 -0.00715 0.0
          0.0078 -0.00715 0.0
          0.0065 -0.00715 0.0
          0.0052 -0.00715 0.0
          0.0039 -0.00715 0.0
          0.0026 -0.00715 0.0
          0.0013 -0.00715 0.0
          0 -0.00715 0.0
          0.039 -0.00845 0.0
          0.0377 -0.00845 0.0
          0.0364 -0.00845 0.0
          0.0351 -0.00845 0.0
          0.0338 -0.00845 0.0
          0.0325 -0.00845 0.0
          0.0312 -0.00845 0.0
          0.0299 -0.00845 0.0
          0.0286 -0.00845 0.0
          0.0273 -0.00845 0.0
          0.026 -0.00845 0.0
          0.0247 -0.00845 0.0
          0.0234 -0.00845 0.0
          0.0221 -0.00845 0.0
          0.0208 -0.00845 0.0
          0.0195 -0.00845 0.0
          0.0182 -0.00845 0.0
          0.0169 -0.00845 0.0
          0.0156 -0.00845 0.0
          0.0143 -0.00845 0.0
          0.013 -0.00845 0.0
          0.0117 -0.00845 0.0
          0.0104 -0.00845 0.0
          0.0091 -0.00845 0.0
          0.0078 -0.00845 0.0
          0.0065 -0.00845 0.0
          0.0052 -0.00845 0.0
          0.0039 -0.00845 0.0
          0.0026 -0.00845 0.0
          0.0013 -0.00845 0.0
          0 -0.00845 0.0
          0.039 -0.00975 0.0
          0.0377 -0.00975 0.0
          0.0364 -0.00975 0.0
          0.0351 -0.00975 0.0
          0.0338 -0.00975 0.0
          0.0325 -0.00975 0.0
          0.0312 -0.00975 0.0
          0.0299 -0.00975 0.0
          0.0286 -0.00975 0.0
          0.0273 -0.00975 0.0
          0.026 -0.00975 0.0
          0.0247 -0.00975 0.0
          0.0234 -0.00975 0.0
          0.0221 -0.00975 0.0
          0.0208 -0.00975 0.0
          0.0195 -0.00975 0.0
          0.0182 -0.00975 0.0
          0.0169 -0.00975 0.0
          0.0156 -0.00975 0.0
          0.0143 -0.00975 0.0
          0.013 -0.00975 0.0
          0.0117 -0.00975 0.0
          0.0104 -0.00975 0.0
          0.0091 -0.00975 0.0
          0.0078 -0.00975 0.0
          0.0065 -0.00975 0.0
          0.0052 -0.00975 0.0
          0.0039 -0.00975 0.0
          0.0026 -0.00975 0.0
          0.0013 -0.00975 0.0
          0 -0.00975 0.0
          0.039 -0.01105 0.0
          0.0377 -0.01105 0.0
          0.0364 -0.01105 0.0
          0.0351 -0.01105 0.0
          0.0338 -0.01105 0.0
          0.0325 -0.01105 0.0
          0.0312 -0.01105 0.0
          0.0299 -0.01105 0.0
          0.0286 -0.01105 0.0
          0.0273 -0.01105 0.0
          0.026 -0.01105 0.0
          0.0247 -0.01105 0.0
          0.0234 -0.01105 0.0
          0.0221 -0.01105 0.0
          0.0208 -0.01105 0.0
          0.0195 -0.01105 0.0
          0.0182 -0.01105 0.0
          0.0169 -0.01105 0.0
          0.0156 -0.01105 0.0
          0.0143 -0.01105 0.0
          0.013 -0.01105 0.0
          0.0117 -0.01105 0.0
          0.0104 -0.01105 0.0
          0.0091 -0.01105 0.0
          0.0078 -0.01105 0.0
          0.0065 -0.01105 0.0
          0.0052 -0.01105 0.0
          0.0039 -0.01105 0.0
          0.0026 -0.01105 0.0
          0.0013 -0.01105 0.0
          0 -0.01105 0.0
          0.039 -0.01235 0.0
          0.0377 -0.01235 0.0
          0.0364 -0.01235 0.0
          0.0351 -0.01235 0.0
          0.0338 -0.01235 0.0
          0.0325 -0.01235 0.0
          0.0312 -0.01235 0.0
          0.0299 -0.01235 0.0
          0.0286 -0.01235 0.0
          0.0273 -0.01235 0.0
          0.026 -0.01235 0.0
          0.0247 -0.01235 0.0
          0.0234 -0.01235 0.0
          0.0221 -0.01235 0.0
          0.0208 -0.01235 0.0
          0.0195 -0.01235 0.0
          0.0182 -0.01235 0.0
          0.0169 -0.01235 0.0
          0.0156 -0.01235 0.0
          0.0143 -0.01235 0.0
          0.013 -0.01235 0.0
          0.0117 -0.01235 0.0
          0.0104 -0.01235 0.0
          0.0091 -0.01235 0.0
          0.0078 -0.01235 0.0
          0.0065 -0.01235 0.0
          0.0052 -0.01235 0.0
          0.0039 -0.01235 0.0
          0.0026 -0.01235 0.0
          0.0013 -0.01235 0.0
          0 -0.01235 0.0
          0.039 -0.01365 0.0
          0.0377 -0.01365 0.0
          0.0364 -0.01365 0.0
          0.0351 -0.01365 0.0
          0.0338 -0.01365 0.0
          0.0325 -0.01365 0.0
          0.0312 -0.01365 0.0
          0.0299 -0.01365 0.0
          0.0286 -0.01365 0.0
          0.0273 -0.01365 0.0
          0.026 -0.01365 0.0
          0.0247 -0.01365 0.0
          0.0234 -0.01365 0.0
          0.0221 -0.01365 0.0
          0.0208 -0.01365 0.0
          0.0195 -0.01365 0.0
          0.0182 -0.01365 0.0
          0.0169 -0.01365 0.0
          0.0156 -0.01365 0.0
          0.0143 -0.01365 0.0
          0.013 -0.01365 0.0
          0.0117 -0.01365 0.0
          0.0104 -0.01365 0.0
          0.0091 -0.01365 0.0
          0.0078 -0.01365 0.0
          0.0065 -0.01365 0.0
          0.0052 -0.01365 0.0
          0.0039 -0.01365 0.0
          0.0026 -0.01365 0.0
          0.0013 -0.01365 0.0
          0 -0.01365 0.0
          0.039 -0.01495 0.0
          0.0377 -0.01495 0.0
          0.0364 -0.01495 0.0
          0.0351 -0.01495 0.0
          0.0338 -0.01495 0.0
          0.0325 -0.01495 0.0
          0.0312 -0.01495 0.0
          0.0299 -0.01495 0.0
          0.0286 -0.01495 0.0
          0.0273 -0.01495 0.0
          0.026 -0.01495 0.0
          0.0247 -0.01495 0.0
          0.0234 -0.01495 0.0
          0.0221 -0.01495 0.0
          0.0208 -0.01495 0.0