<?xml version="1.0"?>
<VTKFile type="UnstructuredGrid" version="0.1" byte_order="LittleEndian">
  <UnstructuredGrid>
    <Piece NumberOfPoints="961" NumberOfCells="900">
      <PointData Scalars="Temperature">
        <DataArray type="Float32" Name="Temperature" format="ascii">
          21.0018
          21.0301
          21.0593
          21.0885
          21.1129
          21.1292
          21.1357
          21.1359
          21.1346
          21.1357
          21.1393
          21.1426
          21.1429
          21.1403
          21.1377
          21.1378
          21.1407
          21.1435
          21.1433
          21.1401
          21.1366
          21.1357
          21.1371
          21.1373
          21.1315
          21.1168
          21.0948
          21.0692
          21.0445
          21.022
          21.0013
          21.0292
          21.4837
          21.9709
          22.4593
          22.8824
          23.1478
          23.2453
          23.2267
          23.1927
          23.211
          23.2825
          23.3484
          23.3525
          23.297
          23.2416
          23.2443
          23.3045
          23.3631
          23.3606
          23.2958
          23.2258
          23.2097
          23.247
          23.2705
          23.1845
          22.9427
          22.5606
          22.1301
          21.7173
          21.3558
          21.0214
          21.0542
          21.9018
          22.8233
          23.9238
          24.8174
          25.3851
          25.48
          25.328
          25.1674
          25.2078
          25.4337
          25.6478
          25.6518
          25.4552
          25.2599
          25.2666
          25.4718
          25.6743
          25.6719
          25.4589
          25.2352
          25.1998
          25.3663
          25.5252
          25.4413
          24.916
          24.1011
          23.1182
          22.3376
          21.663
          21.0399
          21.075
          22.2472
          23.5331
          25.0718
          27.8395
          27.8398
          27.8399
          27.8397
          26.6436
          26.7003
          28.0417
          28.0419
          28.0419
          28.0417
          26.7668
          26.7767
          28.0781
          28.0782
          28.0782
          28.078
          26.737
          26.6874
          27.9011
          27.9013
          27.9012
          27.9009
          25.3064
          23.9419
          22.8559
          21.9224
          21.0556
          21.0902
          22.4956
          24.008
          25.8
          27.8404
          27.8405
          27.8406
          27.8406
          27.5065
          27.5738
          28.0426
          28.0426
          28.0426
          28.0426
          27.6472
          27.6593
          28.0789
          28.079
          28.079
          28.0789
          27.6158
          27.5568
          27.902
          27.902
          27.9019
          27.9018
          26.0755
          24.5074
          23.2411
          22.1207
          21.0677
          21.0997
          22.6465
          24.2691
          26.0087
          27.8424
          27.8425
          27.8426
          27.8426
          27.7806
          27.8479
          28.0445
          28.0445
          28.0445
          28.0445
          27.9254
          27.9375
          28.0808
          28.0808
          28.0808
          28.0808
          27.8917
          27.8327
          27.904
          27.9039
          27.9039
          27.9038
          26.3183
          24.8366
          23.4923
          22.2574
          21.0762
          21.1049
          22.7255
          24.3831
          26.0941
          27.8455
          27.8456
          27.8456
          27.8457
          27.869
          27.9363
          28.0475
          28.0475
          28.0475
          28.0475
          28.015
          28.0272
          28.0838
          28.0838
          28.0838
          28.0838
          27.9807
          27.9217
          27.907
          27.907
          27.907
          27.9069
          26.4289
          24.9994
          23.6399
          22.3427
          21.0816
          21.1074
          22.7624
          24.435
          26.1326
          27.8497
          27.8498
          27.8498
          27.8499
          27.8999
          27.9672
          28.0516
          28.0516
          28.0516
          28.0516
          28.0463
          28.0584
          28.0879
          28.0879
          28.0879
          28.0879
          28.0118
          27.9529
          27.9112
          27.9112
          27.9112
          27.9111
          26.4848
          25.0843
          23.7209
          22.3923
          21.0848
          21.1086
          22.7799
          24.4598
          26.1521
          27.855
          27.8551
          27.8552
          27.8552
          27.9136
          27.9808
          28.0568
          28.0568
          28.0568
          28.0568
          28.0601
          28.0722
          28.0931
          28.0931
          28.0931
          28.0931
          28.0255
          27.9666
          27.9165
          27.9165
          27.9165
          27.9164
          26.5158
          25.1303
          23.7654
          22.42
          21.0866
          21.1092
          22.7887
          24.4728
          26.1638
          27.8615
          27.8616
          27.8616
          27.8616
          27.9227
          27.9898
          28.0631
          28.0631
          28.0631
          28.0631
          28.069
          28.0811
          28.0994
          28.0994
          28.0994
          28.0994
          28.0344
          27.9756
          27.923
          27.9229
          27.9229
          27.9228
          26.5348
          25.1565
          23.7904
          22.4355
          21.0876
          21.1095
          22.7939
          24.481
          26.1725
          27.869
          27.8691
          27.8692
          27.8692
          27.931
          27.998
          28.0704
          28.0704
          28.0704
          28.0704
          28.0772
          28.0893
          28.1068
          28.1068
          28.1068
          28.1068
          28.0427
          27.9839
          27.9305
          27.9305
          27.9304
          27.9304
          26.5481
          25.1728
          23.8053
          22.4447
          21.0882
          21.1098
          22.7976
          24.4873
          26.1804
          27.8777
          27.8778
          27.8779
          27.8779
          27.9399
          28.0068
          28.0789
          28.0789
          28.0789
          28.0789
          28.0859
          28.0981
          28.1152
          28.1152
          28.1152
          28.1152
          28.0515
          27.9928
          27.9391
          27.9391
          27.9391
          27.939
          26.5589
          25.1843
          23.8152
          22.4505
          21.0886
          21.11
          22.8008
          24.4931
          26.1884
          27.8875
          27.8876
          27.8877
          27.8877
          27.9497
          28.0166
          28.0884
          28.0884
          28.0884
          28.0885
          28.0956
          28.1077
          28.1248
          28.1248
          28.1248
          28.1248
          28.0612
          28.0026
          27.9489
          27.9489
          27.9488
          27.9488
          26.5688
          25.1936
          23.8226
          22.4548
          21.0888
          21.1102
          22.8039
          24.4991
          26.1969
          27.8985
          27.8986
          27.8986
          27.8986
          27.9605
          28.0273
          28.0991
          28.0991
          28.0991
          28.0991
          28.1062
          28.1184
          28.1354
          28.1354
          28.1354
          28.1354
          28.0719
          28.0134
          27.9598
          27.9598
          27.9597
          27.9597
          26.5788
          25.2021
          23.829
          22.4583
          21.0891
          21.1104
          22.8073
          24.5054
          26.2061
          27.9105
          27.9106
          27.9107
          27.9107
          27.9725
          28.0392
          28.1108
          28.1108
          28.1108
          28.1108
          28.118
          28.1301
          28.1472
          28.1472
          28.1472
          28.1472
          28.0838
          28.0253
          27.9718
          27.9718
          27.9717
          27.9716
          26.5893
          25.2108
          23.8353
          22.4618
          21.0893
          21.1106
          22.8109
          24.5124
          26.2162
          27.9237
          27.9238
          27.9238
          27.9239
          27.9855
          28.0521
          28.1236
          28.1236
          28.1236
          28.1236
          28.1308
          28.1429
          28.16
          28.16
          28.16
          28.16
          28.0967
          28.0383
          27.9849
          27.9849
          27.9848
          27.9848
          26.6007
          25.2202
          23.8421
          22.4654
          21.0895
          21.1108
          22.8149
          24.52
          26.2272
          27.938
          27.9381
          27.9381
          27.9381
          27.9997
          28.0661
          28.1375
          28.1375
          28.1376
          28.1376
          28.1447
          28.1568
          28.1739
          28.1739
          28.1739
          28.1739
          28.1107
          28.0524
          27.9991
          27.9991
          27.999
          27.999
          26.6133
          25.2308
          23.85
          22.4698
          21.0898
          21.1111
          22.8195
          24.5286
          26.2394
          27.9534
          27.9535
          27.9535
          27.9536
          28.015
          28.0813
          28.1525
          28.1525
          28.1526
          28.1526
          28.1597
          28.1719
          28.1889
          28.1889
          28.1889
          28.1889
          28.1258
          28.0677
          28.0144
          28.0144
          28.0144
          28.0143
          26.6278
          25.2437
          23.8598
          22.4753
          21.0901
          21.1115
          22.8251
          24.5387
          26.2531
          27.9699
          27.97
          27.9701
          27.9701
          28.0313
          28.0975
          28.1686
          28.1686
          28.1686
          28.1686
          28.1758
          28.188
          28.205
          28.205
          28.205
          28.205
          28.142
          28.084
          28.0309
          28.0309
          28.0308
          28.0308
          26.6451
          25.2602
          23.8732
          22.4831
          21.0906
          21.112
          22.8326
          24.5516
          26.2691
          27.9876
          27.9877
          27.9877
          27.9877
          28.0488
          28.1149
          28.1858
          28.1858
          28.1858
          28.1858
          28.193
          28.2052
          28.2222
          28.2222
          28.2222
          28.2222
          28.1594
          28.1014
          28.0485
          28.0484
          28.0484
          28.0483
          26.6668
          25.2833
          23.893
          22.4948
          21.0914
          21.1125
          22.844
          24.5699
          26.2894
          28.0063
          28.0064
          28.0065
          28.0065
          28.0674
          28.1333
          28.2041
          28.2041
          28.2041
          28.2041
          28.2113
          28.2235
          28.2405
          28.2405
          28.2405
          28.2405
          28.1778
          28.12
          28.0671
          28.0671
          28.0671
          28.067
          26.6962
          25.3181
          23.9245
          22.5142
          21.0924
          21.1148
          22.8635
          24.5999
          26.3182
          28.0262
          28.0263
          28.0264
          28.0264
          28.0872
          28.1528
          28.2234
          28.2234
          28.2235
          28.2235
          28.2308
          28.2429
          28.2599
          28.2599
          28.2599
          28.2599
          28.1973
          28.1397
          28.0869
          28.0869
          28.0868
          28.0868
          26.7393
          25.3747
          23.9783
          22.5475
          21.0956
          21.113
          22.9034
          24.655
          26.3654
          28.0472
          28.0473
          28.0474
          28.0475
          28.108
          28.1735
          28.2438
          28.2439
          28.2439
          28.244
          28.2515
          28.2637
          28.2804
          28.2804
          28.2803
          28.2803
          28.218
          28.1605
          28.1079
          28.1078
          28.1077
          28.1076
          26.8069
          25.4717
          24.0734
          22.6099
          21.0951
          21.1383
          22.9781
          24.7697
          26.4515
          28.0692
          28.0694
          28.0696
          28.0697
          28.1301
          28.1952
          28.2652
          28.2653
          28.2656
          28.2657
          28.2739
          28.286
          28.302
          28.302
          28.3018
          28.3017
          28.2399
          28.1827
          28.13
          28.1299
          28.1297
          28.1295
          26.9182
          25.6423
          24.2516
          22.7191
          21.1228
          21.0625
          23.1861
          25.0018
          26.6259
          28.092
          28.0924
          28.093
          28.0933
          28.1537
          28.2181
          28.2873
          28.2877
          28.2885
          28.2889
          28.2989
          28.3109
          28.325
          28.3248
          28.3243
          28.324
          28.2632
          28.2066
          28.1536
          28.1532
          28.1526
          28.1522
          27.1004
          25.9502
          24.5779
          22.9769
          21.0495
          21.4852
          23.4911
          25.5673
          26.9549
          28.115
          28.1161
          28.118
          28.119
          28.1797
          28.2425
          28.3092
          28.3106
          28.313
          28.3143
          28.3288
          28.3405
          28.3499
          28.349
          28.3475
          28.3466
          28.2888
          28.2335
          28.1792
          28.1781
          28.1762
          28.1751
          27.3794
          26.4718
          25.2726
          23.3475
          21.4788
          19.823
          25.1745
          26.6353
          27.4801
          28.1367
          28.1391
          28.1459
          28.1483
          28.2123
          28.2687
          28.329
          28.3322
          28.341
          28.3442
          28.3702
          28.3806
          28.3779
          28.3758
          28.3703
          28.3683
          28.3181
          28.2681
          28.2084
          28.2059
          28.199
          28.1964
          27.7591
          27.2461
          26.5022
          25.1187
          19.8101
          28.1252
          28.1353
          28.1432
          28.1506
          28.154
          28.1587
          28.1719
          28.1992
          28.2588
          28.3003
          28.3357
          28.3523
          28.37
          28.3946
          28.4345
          28.4419
          28.4196
          28.4035
          28.3924
          28.3823
          28.3565
          28.3185
          28.2595
          28.232
          28.2183
          28.2129
          28.2082
          28.1999
          28.1916
          28.1834
          28.1732
          28.1292
          28.1363
          28.1438
          28.1515
          28.1604
          28.1727
          28.1921
          28.2227
          28.2612
          28.3034
          28.3408
          28.373
          28.4002
          28.4254
          28.4443
          28.4516
          28.4461
          28.4329
          28.4163
          28.3932
          28.3618
          28.3222
          28.2837
          28.2524
          28.2322
          28.219
          28.2091
          28.2003
          28.192
          28.1843
          28.1772
          28.1337
          28.1383
          28.1449
          28.1536
          28.165
          28.1806
          28.2024
          28.2316
          28.2677
          28.3093
          28.3563
          28.3998
          28.4326
          28.457
          28.4732
          28.4799
          28.477
          28.4656
          28.4462
          28.4174
          28.3762
          28.3314
          28.2934
          28.263
          28.2401
          28.2234
          28.211
          28.201
          28.1928
          28.1862
          28.1816
          28.1369
          28.1391
          28.1455
          28.1545
          28.1666
          28.1831
          28.2054
          28.2345
          28.2701
          28.3124
          28.3654
          28.4157
          28.4502
          28.4748
          28.4905
          28.4972
          28.4947
          28.4835
          28.4633
          28.4326
          28.3853
          28.3351
          28.2967
          28.2661
          28.2426
          28.225
          28.2117
          28.2014
          28.1931
          28.187
          28.1848
        </DataArray>
      </PointData>
      <CellData>
      </CellData>
      <Points>
        <DataArray type="Float32" NumberOfComponents="3" format="ascii">
          0.039 0.00195 0.0
          0.0377 0.00195 0.0
          0.0364 0.00195 0.0
          0.0351 0.00195 0.0
          0.0338 0.00195 0.0
          0.0325 0.00195 0.0
          0.0312 0.00195 0.0
          0.0299 0.00195 0.0
          0.0286 0.00195 0.0
          0.0273 0.00195 0.0
          0.026 0.00195 0.0
          0.0247 0.00195 0.0
          0.0234 0.00195 0.0
          0.0221 0.00195 0.0
          0.0208 0.00195 0.0
          0.0195 0.00195 0.0
          0.0182 0.00195 0.0
          0.0169 0.00195 0.0
          0.0156 0.00195 0.0
          0.0143 0.00195 0.0
          0.013 0.00195 0.0
          0.0117 0.00195 0.0
          0.0104 0.00195 0.0
          0.0091 0.00195 0.0
          0.0078 0.00195 0.0
          0.0065 0.00195 0.0
          0.0052 0.00195 0.0
          0.0039 0.00195 0.0
          0.0026 0.00195 0.0
          0.0013 0.00195 0.0
          0 0.00195 0.0
          0.039 0.00065 0.0
          0.0377 0.00065 0.0
          0.0364 0.00065 0.0
          0.0351 0.00065 0.0
          0.0338 0.00065 0.0
          0.0325 0.00065 0.0
          0.0312 0.00065 0.0
          0.0299 0.00065 0.0
          0.0286 0.00065 0.0
          0.0273 0.00065 0.0
          0.026 0.00065 0.0
          0.0247 0.00065 0.0
          0.0234 0.00065 0.0
          0.0221 0.00065 0.0
          0.0208 0.00065 0.0
          0.0195 0.00065 0.0
          0.0182 0.00065 0.0
          0.0169 0.00065 0.0
          0.0156 0.00065 0.0
          0.0143 0.00065 0.0
          0.013 0.00065 0.0
          0.0117 0.00065 0.0
          0.0104 0.00065 0.0
          0.0091 0.00065 0.0
          0.0078 0.00065 0.0
          0.0065 0.00065 0.0
          0.0052 0.00065 0.0
          0.0039 0.00065 0.0
          0.0026 0.00065 0.0
          0.0013 0.00065 0.0
          0 0.00065 0.0
          0.039 -0.00065 0.0
          0.0377 -0.00065 0.0
          0.0364 -0.00065 0.0
          0.0351 -0.00065 0.0
          0.0338 -0.00065 0.0
          0.0325 -0.00065 0.0
          0.0312 -0.00065 0.0
          0.0299 -0.00065 0.0
          0.0286 -0.00065 0.0
          0.0273 -0.00065 0.0
          0.026 -0.00065 0.0
          0.0247 -0.00065 0.0
          0.0234 -0.00065 0.0
          0.0221 -0.00065 0.0
          0.0208 -0.00065 0.0
          0.0195 -0.00065 0.0
          0.0182 -0.00065 0.0
          0.0169 -0.00065 0.0
          0.0156 -0.00065 0.0
          0.0143 -0.00065 0.0
          0.013 -0.00065 0.0
          0.0117 -0.00065 0.0
          0.0104 -0.00065 0.0
          0.0091 -0.00065 0.0
          0.0078 -0.00065 0.0
          0.0065 -0.00065 0.0
          0.0052 -0.00065 0.0
          0.0039 -0.00065 0.0
          0.0026 -0.00065 0.0
          0.0013 -0.00065 0.0
          0 -0.00065 0.0
          0.039 -0.00195 0.0
          0.0377 -0.00195 0.0
          0.0364 -0.00195 0.0
          0.0351 -0.00195 0.0
          0.0338 -0.00195 0.0
          0.0325 -0.00195 0.0
          0.0312 -0.00195 0.0
          0.0299 -0.00195 0.0
          0.0286 -0.00195 0.0
          0.0273 -0.00195 0.0
          0.026 -0.00195 0.0
          0.0247 -0.00195 0.0
          0.0234 -0.00195 0.0
          0.0221 -0.00195 0.0
          0.0208 -0.00195 0.0
          0.0195 -0.00195 0.0
          0.0182 -0.00195 0.0
          0.0169 -0.00195 0.0
          0.0156 -0.00195 0.0
          0.0143 -0.00195 0.0
          0.013 -0.00195 0.0
          0.0117 -0.00195 0.0
          0.0104 -0.00195 0.0
          0.0091 -0.00195 0.0
          0.0078 -0.00195 0.0
          0.0065 -0.00195 0.0
          0.0052 -0.00195 0.0
          0.0039 -0.00195 0.0
          0.0026 -0.00195 0.0
          0.0013 -0.00195 0.0
          0 -0.00195 0.0
          0.039 -0.00325 0.0
          0.0377 -0.00325 0.0
          0.0364 -0.00325 0.0
          0.0351 -0.00325 0.0
          0.0338 -0.00325 0.0
          0.0325 -0.00325 0.0
          0.0312 -0.00325 0.0
          0.0299 -0.00325 0.0
          0.0286 -0.00325 0.0
          0.0273 -0.00325 0.0
          0.026 -0.00325 0.0
          0.0247 -0.00325 0.0
          0.0234 -0.00325 0.0
          0.0221 -0.00325 0.0
          0.0208 -0.00325 0.0
          0.0195 -0.00325 0.0
          0.0182 -0.00325 0.0
          0.0169 -0.00325 0.0
          0.0156 -0.00325 0.0
          0.0143 -0.00325 0.0
          0.013 -0.00325 0.0
          0.0117 -0.00325 0.0
          0.0104 -0.00325 0.0
          0.0091 -0.00325 0.0
          0.0078 -0.00325 0.0
          0.0065 -0.00325 0.0
          0.0052 -0.00325 0.0
          0.0039 -0.00325 0.0
          0.0026 -0.00325 0.0
          0.0013 -0.00325 0.0
          0 -0.00325 0.0
          0.039 -0.00455 0.0
          0.0377 -0.00455 0.0
          0.0364 -0.00455 0.0
          0.0351 -0.00455 0.0
          0.0338 -0.00455 0.0
          0.0325 -0.00455 0.0
          0.0312 -0.00455 0.0
          0.0299 -0.00455 0.0
          0.0286 -0.00455 0.0
          0.0273 -0.00455 0.0
          0.026 -0.00455 0.0
          0.0247 -0.00455 0.0
          0.0234 -0.00455 0.0
          0.0221 -0.00455 0.0
          0.0208 -0.00455 0.0
          0.0195 -0.00455 0.0
          0.0182 -0.00455 0.0
          0.0169 -0.00455 0.0
          0.0156 -0.00455 0.0
          0.0143 -0.00455 0.0
          0.013 -0.00455 0.0
          0.0117 -0.00455 0.0
          0.0104 -0.00455 0.0
          0.0091 -0.00455 0.0
          0.0078 -0.00455 0.0
          0.0065 -0.00455 0.0
          0.0052 -0.00455 0.0
          0.0039 -0.00455 0.0
          0.0026 -0.00455 0.0
          0.0013 -0.00455 0.0
          0 -0.00455 0.0
          0.039 -0.00585 0.0
          0.0377 -0.00585 0.0
          0.0364 -0.00585 0.0
          0.0351 -0.00585 0.0
          0.0338 -0.00585 0.0
          0.0325 -0.00585 0.0
          0.0312 -0.00585 0.0
          0.0299 -0.00585 0.0
          0.0286 -0.00585 0.0
          0.0273 -0.00585 0.0
          0.026 -0.00585 0.0
          0.0247 -0.00585 0.0
          0.0234 -0.00585 0.0
          0.0221 -0.00585 0.0
          0.0208 -0.00585 0.0
          0.0195 -0.00585 0.0
          0.0182 -0.00585 0.0
          0.0169 -0.00585 0.0
          0.0156 -0.00585 0.0
          0.0143 -0.00585 0.0
          0.013 -0.00585 0.0
          0.0117 -0.00585 0.0
          0.0104 -0.00585 0.0
          0.0091 -0.00585 0.0
          0.0078 -0.00585 0.0
          0.0065 -0.00585 0.0
          0.0052 -0.00585 0.0
          0.0039 -0.00585 0.0
          0.0026 -0.00585 0.0
          0.0013 -0.00585 0.0
          0 -0.00585 0.0
          0.039 -0.00715 0.0
          0.0377 -0.00715 0.0
          0.0364 -0.00715 0.0
          0.0351 -0.00715 0.0
          0.0338 -0.00715 0.0
          0.0325 -0.00715 0.0
          0.0312 -0.00715 0.0
          0.0299 -0.00715 0.0
          0.0286 -0.00715 0.0
          0.0273 -0.00715 0.0
          0.026 -0.00715 0.0
          0.0247 -0.00715 0.0
          0.0234 -0.00715 0.0
          0.0221 -0.00715 0.0
          0.0208 -0.00715 0.0
          0.0195 -0.00715 0.0
          0.0182 -0.00715 0.0
          0.0169 -0.00715 0.0
          0.0156 -0.00715 0.0
          0.0143 -0.00715 0.0
          0.013 -0.00715 0.0
          0.0117 -0.00715 0.0
          0.0104 -0.00715 0.0
          0.0091 -0.00715 0.0
          0.0078 -0.00715 0.0
          0.0065 -0.00715 0.0
          0.0052 -0.00715 0.0
          0.0039 -0.00715 0.0
          0.0026 -0.00715 0.0
          0.0013 -0.00715 0.0
          0 -0.00715 0.0
          0.039 -0.00845 0.0
          0.0377 -0.00845 0.0
          0.0364 -0.00845 0.0
          0.0351 -0.00845 0.0
          0.0338 -0.00845 0.0
          0.0325 -0.00845 0.0
          0.0312 -0.00845 0.0
          0.0299 -0.00845 0.0
          0.0286 -0.00845 0.0
          0.0273 -0.00845 0.0
          0.026 -0.00845 0.0
          0.0247 -0.00845 0.0
          0.0234 -0.00845 0.0
          0.0221 -0.00845 0.0
          0.0208 -0.00845 0.0
          0.0195 -0.00845 0.0
          0.0182 -0.00845 0.0
          0.0169 -0.00845 0.0
          0.0156 -0.00845 0.0
          0.0143 -0.00845 0.0
          0.013 -0.00845 0.0
          0.0117 -0.00845 0.0
          0.0104 -0.00845 0.0
          0.0091 -0.00845 0.0
          0.0078 -0.00845 0.0
          0.0065 -0.00845 0.0
          0.0052 -0.00845 0.0
          0.0039 -0.00845 0.0
          0.0026 -0.00845 0.0
          0.0013 -0.00845 0.0
          0 -0.00845 0.0
          0.039 -0.00975 0.0
          0.0377 -0.00975 0.0
          0.0364 -0.00975 0.0
          0.0351 -0.00975 0.0
          0.0338 -0.00975 0.0
          0.0325 -0.00975 0.0
          0.0312 -0.00975 0.0
          0.0299 -0.00975 0.0
          0.0286 -0.00975 0.0
          0.0273 -0.00975 0.0
          0.026 -0.00975 0.0
          0.0247 -0.00975 0.0
          0.0234 -0.00975 0.0
          0.0221 -0.00975 0.0
          0.0208 -0.00975 0.0
          0.0195 -0.00975 0.0
          0.0182 -0.00975 0.0
          0.0169 -0.00975 0.0
          0.0156 -0.00975 0.0
          0.0143 -0.00975 0.0
          0.013 -0.00975 0.0
          0.0117 -0.00975 0.0
          0.0104 -0.00975 0.0
          0.0091 -0.00975 0.0
          0.0078 -0.00975 0.0
          0.0065 -0.00975 0.0
          0.0052 -0.00975 0.0
          0.0039 -0.00975 0.0
          0.0026 -0.00975 0.0
          0.0013 -0.00975 0.0
          0 -0.00975 0.0
          0.039 -0.01105 0.0
          0.0377 -0.01105 0.0
          0.0364 -0.01105 0.0
          0.0351 -0.01105 0.0
          0.0338 -0.01105 0.0
          0.0325 -0.01105 0.0
          0.0312 -0.01105 0.0
          0.0299 -0.01105 0.0
          0.0286 -0.01105 0.0
          0.0273 -0.01105 0.0
          0.026 -0.01105 0.0
          0.0247 -0.01105 0.0
          0.0234 -0.01105 0.0
          0.0221 -0.01105 0.0
          0.0208 -0.01105 0.0
          0.0195 -0.01105 0.0
          0.0182 -0.01105 0.0
          0.0169 -0.01105 0.0
          0.0156 -0.01105 0.0
          0.0143 -0.01105 0.0
          0.013 -0.01105 0.0
          0.0117 -0.01105 0.0
          0.0104 -0.01105 0.0
          0.0091 -0.01105 0.0
          0.0078 -0.01105 0.0
          0.0065 -0.01105 0.0
          0.0052 -0.01105 0.0
          0.0039 -0.01105 0.0
          0.0026 -0.01105 0.0
          0.0013 -0.01105 0.0
          0 -0.01105 0.0
          0.039 -0.01235 0.0
          0.0377 -0.01235 0.0
          0.0364 -0.01235 0.0
          0.0351 -0.01235 0.0
          0.0338 -0.01235 0.0
          0.0325 -0.01235 0.0
          0.0312 -0.01235 0.0
          0.0299 -0.01235 0.0
          0.0286 -0.01235 0.0
          0.0273 -0.01235 0.0
          0.026 -0.01235 0.0
          0.0247 -0.01235 0.0
          0.0234 -0.01235 0.0
          0.0221 -0.01235 0.0
          0.0208 -0.01235 0.0
          0.0195 -0.01235 0.0
          0.0182 -0.01235 0.0
          0.0169 -0.01235 0.0
          0.0156 -0.01235 0.0
          0.0143 -0.01235 0.0
          0.013 -0.01235 0.0
          0.0117 -0.01235 0.0
          0.0104 -0.01235 0.0
          0.0091 -0.01235 0.0
          0.0078 -0.01235 0.0
          0.0065 -0.01235 0.0
          0.0052 -0.01235 0.0
          0.0039 -0.01235 0.0
          0.0026 -0.01235 0.0
          0.0013 -0.01235 0.0
          0 -0.01235 0.0
          0.039 -0.01365 0.0
          0.0377 -0.01365 0.0
          0.0364 -0.01365 0.0
          0.0351 -0.01365 0.0
          0.0338 -0.01365 0.0
          0.0325 -0.01365 0.0
          0.0312 -0.01365 0.0
          0.0299 -0.01365 0.0
          0.0286 -0.01365 0.0
          0.0273 -0.01365 0.0
          0.026 -0.01365 0.0
          0.0247 -0.01365 0.0
          0.0234 -0.01365 0.0
          0.0221 -0.01365 0.0
          0.0208 -0.01365 0.0
          0.0195 -0.01365 0.0
          0.0182 -0.01365 0.0
          0.0169 -0.01365 0.0
          0.0156 -0.01365 0.0
          0.0143 -0.01365 0.0
          0.013 -0.01365 0.0
          0.0117 -0.01365 0.0
          0.0104 -0.01365 0.0
          0.0091 -0.01365 0.0
          0.0078 -0.01365 0.0
          0.0065 -0.01365 0.0
          0.0052 -0.01365 0.0
          0.0039 -0.01365 0.0
          0.0026 -0.01365 0.0
          0.0013 -0.01365 0.0
          0 -0.01365 0.0
          0.039 -0.01495 0.0
          0.0377 -0.01495 0.0
          0.0364 -0.01495 0.0
          0.0351 -0.01495 0.0
          0.0338 -0.01495 0.0
          0.0325 -0.01495 0.0
          0.0312 -0.01495 0.0
          0.0299 -0.01495 0.0
          0.0286 -0.01495 0.0
          0.0273 -0.01495 0.0
          0.026 -0.01495 0.0
          0.0247 -0.01495 0.0
          0.0234 -0.01495 0.0
          0.0221 -0.01495 0.0