<?xml version="1.0"?>
<VTKFile type="UnstructuredGrid" version="0.1" byte_order="LittleEndian">
  <UnstructuredGrid>
    <Piece NumberOfPoints="961" NumberOfCells="900">
      <PointData Scalars="Temperature">
        <DataArray type="Float32" Name="Temperature" format="ascii">
          21.0035
          21.0598
          21.118
          21.1759
          21.2245
          21.2566
          21.2694
          21.2694
          21.2663
          21.2678
          21.2742
          21.2802
          21.2805
          21.2753
          21.2701
          21.2702
          21.2758
          21.2812
          21.281
          21.275
          21.2688
          21.2675
          21.2709
          21.2715
          21.2603
          21.2313
          21.1878
          21.1371
          21.0882
          21.0436
          21.0026
          21.058
          21.9619
          22.9305
          23.9012
          24.7414
          25.2678
          25.4589
          25.416
          25.3381
          25.3616
          25.4914
          25.6142
          25.6189
          25.5081
          25.3974
          25.4002
          25.5158
          25.6297
          25.6267
          25.5052
          25.3772
          25.3566
          25.4393
          25.491
          25.3231
          24.8457
          24.0901
          23.2382
          22.4211
          21.705
          21.0424
          21.1078
          22.7933
          24.6253
          26.8114
          28.586
          29.7124
          29.8985
          29.5861
          29.247
          29.2954
          29.7177
          30.1257
          30.1303
          29.7424
          29.3556
          29.3624
          29.7593
          30.1533
          30.1503
          29.7436
          29.3242
          29.2819
          29.6285
          29.9516
          29.7881
          28.7503
          27.139
          25.1949
          23.6499
          22.3138
          21.0791
          21.1492
          23.4801
          26.0359
          29.0922
          34.5852
          34.5858
          34.586
          34.5857
          32.1688
          32.2342
          34.8145
          34.8148
          34.8148
          34.8145
          32.3098
          32.3199
          34.8515
          34.8518
          34.8518
          34.8515
          32.2726
          32.2153
          34.6511
          34.6514
          34.6513
          34.6507
          29.5239
          26.8256
          24.6763
          22.8275
          21.1102
          21.1793
          23.9736
          26.9793
          30.5381
          34.5865
          34.5868
          34.5869
          34.5869
          33.876
          33.9522
          34.8156
          34.8157
          34.8157
          34.8156
          34.0347
          34.047
          34.8526
          34.8527
          34.8527
          34.8526
          33.9959
          33.9292
          34.6523
          34.6523
          34.6522
          34.652
          31.0448
          27.9445
          25.4388
          23.2202
          21.1341
          21.1982
          24.273
          27.4973
          30.9514
          34.5887
          34.5889
          34.589
          34.589
          34.4152
          34.4914
          34.8176
          34.8176
          34.8177
          34.8176
          34.578
          34.5903
          34.8546
          34.8547
          34.8547
          34.8546
          34.537
          34.4702
          34.6544
          34.6544
          34.6543
          34.6541
          31.524
          28.5953
          25.9356
          23.4905
          21.1509
          21.2085
          24.4293
          27.7225
          31.119
          34.5919
          34.5921
          34.5922
          34.5922
          34.5869
          34.663
          34.8206
          34.8206
          34.8207
          34.8206
          34.7508
          34.7632
          34.8577
          34.8577
          34.8577
          34.8576
          34.7092
          34.6425
          34.6576
          34.6576
          34.6575
          34.6573
          31.7407
          28.9161
          26.2267
          23.659
          21.1616
          21.2134
          24.5018
          27.8237
          31.1925
          34.5962
          34.5964
          34.5965
          34.5965
          34.6439
          34.72
          34.8246
          34.8246
          34.8246
          34.8246
          34.8081
          34.8205
          34.8617
          34.8617
          34.8617
          34.8616
          34.7663
          34.6997
          34.6618
          34.6618
          34.6617
          34.6615
          31.8483
          29.0818
          26.3856
          23.7563
          21.1678
          21.2157
          24.5351
          27.8702
          31.2272
          34.6015
          34.6017
          34.6018
          34.6018
          34.6657
          34.7416
          34.8296
          34.8296
          34.8296
          34.8296
          34.8298
          34.8422
          34.8666
          34.8666
          34.8666
          34.8666
          34.788
          34.7215
          34.6671
          34.667
          34.6669
          34.6668
          31.9055
          29.1697
          26.4717
          23.8101
          21.1713
          21.2168
          24.551
          27.8928
          31.2456
          34.6078
          34.608
          34.6081
          34.6082
          34.6772
          34.753
          34.8356
          34.8356
          34.8356
          34.8356
          34.8411
          34.8534
          34.8726
          34.8726
          34.8726
          34.8726
          34.7994
          34.7329
          34.6734
          34.6733
          34.6732
          34.6731
          31.938
          29.2179
          26.5187
          23.8397
          21.1733
          21.2173
          24.5593
          27.9052
          31.2572
          34.6153
          34.6154
          34.6156
          34.6156
          34.6861
          34.7617
          34.8426
          34.8426
          34.8426
          34.8426
          34.8497
          34.862
          34.8796
          34.8796
          34.8796
          34.8796
          34.8081
          34.7418
          34.6807
          34.6807
          34.6806
          34.6804
          31.9583
          29.2456
          26.5452
          23.8562
          21.1744
          21.2177
          24.5643
          27.9133
          31.2663
          34.6237
          34.6239
          34.624
          34.6241
          34.6949
          34.7703
          34.8505
          34.8505
          34.8505
          34.8505
          34.8581
          34.8705
          34.8875
          34.8875
          34.8875
          34.8875
          34.8167
          34.7506
          34.6891
          34.6891
          34.689
          34.6888
          31.9727
          29.2631
          26.5611
          23.866
          21.175
          21.2179
          24.568
          27.9198
          31.2746
          34.6333
          34.6334
          34.6335
          34.6336
          34.7044
          34.7796
          34.8594
          34.8595
          34.8595
          34.8595
          34.8672
          34.8796
          34.8965
          34.8965
          34.8965
          34.8965
          34.826
          34.76
          34.6985
          34.6985
          34.6984
          34.6983
          31.9843
          29.2755
          26.5718
          23.8723
          21.1754
          21.2181
          24.5714
          27.926
          31.2832
          34.6438
          34.644
          34.6441
          34.6442
          34.7148
          34.7898
          34.8694
          34.8694
          34.8694
          34.8694
          34.8772
          34.8896
          34.9064
          34.9064
          34.9064
          34.9064
          34.8361
          34.7703
          34.709
          34.7089
          34.7089
          34.7087
          31.9951
          29.2857
          26.58
          23.877
          21.1757
          21.2183
          24.5748
          27.9324
          31.2922
          34.6555
          34.6556
          34.6557
          34.6558
          34.7262
          34.801
          34.8803
          34.8803
          34.8803
          34.8803
          34.8881
          34.9005
          34.9173
          34.9173
          34.9173
          34.9173
          34.8473
          34.7816
          34.7205
          34.7204
          34.7204
          34.7202
          32.0061
          29.2954
          26.5875
          23.8812
          21.176
          21.2185
          24.5784
          27.9393
          31.3021
          34.6681
          34.6683
          34.6684
          34.6685
          34.7386
          34.8132
          34.8922
          34.8922
          34.8922
          34.8922
          34.9001
          34.9124
          34.9293
          34.9293
          34.9292
          34.9292
          34.8594
          34.794
          34.733
          34.733
          34.7329
          34.7328
          32.0178
          29.3058
          26.5954
          23.8857
          21.1762
          21.2188
          24.5825
          27.9469
          31.313
          34.6819
          34.682
          34.6821
          34.6822
          34.752
          34.8263
          34.9051
          34.9051
          34.9051
          34.9051
          34.913
          34.9253
          34.9421
          34.9421
          34.9421
          34.9421
          34.8725
          34.8073
          34.7466
          34.7466
          34.7465
          34.7463
          32.0312
          29.318
          26.605
          23.8911
          21.1766
          21.2191
          24.5875
          27.956
          31.3252
          34.6966
          34.6968
          34.6969
          34.697
          34.7665
          34.8405
          34.919
          34.919
          34.919
          34.919
          34.9268
          34.9392
          34.956
          34.956
          34.956
          34.956
          34.8866
          34.8217
          34.7612
          34.7612
          34.7611
          34.761
          32.0472
          29.3338
          26.618
          23.8987
          21.1771
          21.2195
          24.5941
          27.9674
          31.3395
          34.7125
          34.7127
          34.7128
          34.7128
          34.782
          34.8557
          34.9338
          34.9338
          34.9338
          34.9338
          34.9417
          34.9541
          34.9709
          34.9709
          34.9709
          34.9709
          34.9018
          34.8371
          34.7769
          34.7768
          34.7768
          34.7766
          32.0676
          29.3561
          26.6373
          23.9103
          21.1778
          21.2203
          24.6041
          27.9835
          31.3575
          34.7294
          34.7295
          34.7296
          34.7297
          34.7986
          34.8719
          34.9497
          34.9497
          34.9497
          34.9497
          34.9576
          34.9699
          34.9868
          34.9868
          34.9868
          34.9868
          34.9179
          34.8535
          34.7936
          34.7935
          34.7934
          34.7933
          32.0958
          29.3903
          26.6686
          23.9295
          21.1791
          21.221
          24.6215
          28.0097
          31.383
          34.7473
          34.7475
          34.7476
          34.7476
          34.8162
          34.8891
          34.9665
          34.9665
          34.9665
          34.9665
          34.9745
          34.9868
          35.0036
          35.0036
          35.0036
          35.0036
          34.9351
          34.871
          34.8113
          34.8113
          34.8112
          34.811
          32.138
          29.4467
          26.7222
          23.9632
          21.1809
          21.2252
          24.6542
          28.0582
          31.4242
          34.7663
          34.7665
          34.7666
          34.7666
          34.8348
          34.9073
          34.9843
          34.9843
          34.9844
          34.9844
          34.9924
          35.0048
          35.0215
          35.0215
          35.0214
          35.0214
          34.9532
          34.8895
          34.8301
          34.8301
          34.8299
          34.8298
          32.2058
          29.5444
          26.8184
          24.0235
          21.1868
          21.2212
          24.7264
          28.1548
          31.5003
          34.7863
          34.7865
          34.7866
          34.7867
          34.8545
          34.9265
          35.0031
          35.0031
          35.0032
          35.0032
          35.0115
          35.0239
          35.0403
          35.0403
          35.0402
          35.0402
          34.9724
          34.909
          34.8499
          34.8499
          34.8497
          34.8496
          32.3202
          29.7198
          26.9942
          24.1401
          21.1857
          21.27
          24.8658
          28.3665
          31.6512
          34.8072
          34.8075
          34.8078
          34.808
          34.8753
          34.9468
          35.0227
          35.0228
          35.0231
          35.0232
          35.0322
          35.0445
          35.0602
          35.0602
          35.06
          35.0599
          34.9928
          34.9299
          34.8709
          34.8708
          34.8705
          34.8703
          32.5184
          30.0371
          27.3304
          24.3469
          21.2388
          21.1227
          25.2636
          28.8057
          31.9728
          34.8289
          34.8294
          34.8302
          34.8306
          34.8976
          34.9681
          35.0429
          35.0433
          35.0442
          35.0446
          35.0553
          35.0675
          35.0814
          35.0811
          35.0806
          35.0803
          35.0145
          34.9524
          34.8933
          34.8929
          34.8921
          34.8917
          32.8529
          30.6192
          27.9523
          24.8408
          21.0968
          21.9425
          25.8495
          29.8912
          32.5939
          34.8506
          34.8519
          34.8541
          34.8553
          34.9223
          34.9908
          35.0628
          35.0642
          35.0668
          35.0682
          35.0833
          35.0953
          35.1044
          35.1035
          35.1018
          35.1009
          35.0383
          34.9778
          34.9178
          34.9165
          34.9143
          34.913
          33.374
          31.6136
          29.2861
          25.5527
          21.9268
          18.7166
          29.1093
          31.9506
          33.5948
          34.8703
          34.8732
          34.8811
          34.8839
          34.9536
          35.0149
          35.0803
          35.0837
          35.0929
          35.0962
          35.1227
          35.1333
          35.1305
          35.1284
          35.1225
          35.1203
          35.0655
          35.011
          34.9462
          34.9433
          34.9353
          34.9324
          34.0887
          33.0949
          31.653
          28.9723
          18.6993
          34.827
          34.846
          34.8601
          34.8731
          34.8832
          34.8911
          34.9065
          34.9357
          34.9989
          35.0434
          35.0832
          35.1018
          35.1202
          35.1449
          35.1844
          35.1919
          35.1703
          35.1544
          35.1426
          35.1308
          35.1009
          35.06
          34.9979
          34.9686
          34.9529
          34.9444
          34.9331
          34.9195
          34.9058
          34.8914
          34.8723
          34.8347
          34.8479
          34.861
          34.874
          34.8876
          34.9038
          34.9262
          34.9598
          35.0012
          35.0464
          35.0866
          35.1209
          35.1492
          35.175
          35.1942
          35.2016
          35.1961
          35.1826
          35.1649
          35.14
          35.1061
          35.0637
          35.0224
          34.9884
          34.9654
          34.9483
          34.9338
          34.9199
          34.9065
          34.8933
          34.88
          34.8432
          34.8515
          34.8626
          34.8758
          34.8916
          34.911
          34.9363
          34.9686
          35.0077
          35.052
          35.1015
          35.1469
          35.181
          35.2062
          35.2228
          35.2296
          35.2266
          35.2145
          35.194
          35.1636
          35.1201
          35.0728
          35.0321
          34.9987
          34.9725
          34.9521
          34.9353
          34.9207
          34.9078
          34.8968
          34.8885
          34.8495
          34.8531
          34.8633
          34.8767
          34.893
          34.9134
          34.9392
          34.9714
          35.01
          35.0549
          35.1104
          35.1625
          35.1984
          35.2238
          35.24
          35.2468
          35.2441
          35.2322
          35.2109
          35.1785
          35.1291
          35.0764
          35.0353
          35.0017
          34.9749
          34.9535
          34.936
          34.9211
          34.9084
          34.8983
          34.8947
        </DataArray>
      </PointData>
      <CellData>
      </CellData>
      <Points>
        <DataArray type="Float32" NumberOfComponents="3" format="ascii">
          0.039 0.00195 0.0
          0.0377 0.00195 0.0
          0.0364 0.00195 0.0
          0.0351 0.00195 0.0
          0.0338 0.00195 0.0
          0.0325 0.00195 0.0
          0.0312 0.00195 0.0
          0.0299 0.00195 0.0
          0.0286 0.00195 0.0
          0.0273 0.00195 0.0
          0.026 0.00195 0.0
          0.0247 0.00195 0.0
          0.0234 0.00195 0.0
          0.0221 0.00195 0.0
          0.0208 0.00195 0.0
          0.0195 0.00195 0.0
          0.0182 0.00195 0.0
          0.0169 0.00195 0.0
          0.0156 0.00195 0.0
          0.0143 0.00195 0.0
          0.013 0.00195 0.0
          0.0117 0.00195 0.0
          0.0104 0.00195 0.0
          0.0091 0.00195 0.0
          0.0078 0.00195 0.0
          0.0065 0.00195 0.0
          0.0052 0.00195 0.0
          0.0039 0.00195 0.0
          0.0026 0.00195 0.0
          0.0013 0.00195 0.0
          0 0.00195 0.0
          0.039 0.00065 0.0
          0.0377 0.00065 0.0
          0.0364 0.00065 0.0
          0.0351 0.00065 0.0
          0.0338 0.00065 0.0
          0.0325 0.00065 0.0
          0.0312 0.00065 0.0
          0.0299 0.00065 0.0
          0.0286 0.00065 0.0
          0.0273 0.00065 0.0
          0.026 0.00065 0.0
          0.0247 0.00065 0.0
          0.0234 0.00065 0.0
          0.0221 0.00065 0.0
          0.0208 0.00065 0.0
          0.0195 0.00065 0.0
          0.0182 0.00065 0.0
          0.0169 0.00065 0.0
          0.0156 0.00065 0.0
          0.0143 0.00065 0.0
          0.013 0.00065 0.0
          0.0117 0.00065 0.0
          0.0104 0.00065 0.0
          0.0091 0.00065 0.0
          0.0078 0.00065 0.0
          0.0065 0.00065 0.0
          0.0052 0.00065 0.0
          0.0039 0.00065 0.0
          0.0026 0.00065 0.0
          0.0013 0.00065 0.0
          0 0.00065 0.0
          0.039 -0.00065 0.0
          0.0377 -0.00065 0.0
          0.0364 -0.00065 0.0
          0.0351 -0.00065 0.0
          0.0338 -0.00065 0.0
          0.0325 -0.00065 0.0
          0.0312 -0.00065 0.0
          0.0299 -0.00065 0.0
          0.0286 -0.00065 0.0
          0.0273 -0.00065 0.0
          0.026 -0.00065 0.0
          0.0247 -0.00065 0.0
          0.0234 -0.00065 0.0
          0.0221 -0.00065 0.0
          0.0208 -0.00065 0.0
          0.0195 -0.00065 0.0
          0.0182 -0.00065 0.0
          0.0169 -0.00065 0.0
          0.0156 -0.00065 0.0
          0.0143 -0.00065 0.0
          0.013 -0.00065 0.0
          0.0117 -0.00065 0.0
          0.0104 -0.00065 0.0
          0.0091 -0.00065 0.0
          0.0078 -0.00065 0.0
          0.0065 -0.00065 0.0
          0.0052 -0.00065 0.0
          0.0039 -0.00065 0.0
          0.0026 -0.00065 0.0
          0.0013 -0.00065 0.0
          0 -0.00065 0.0
          0.039 -0.00195 0.0
          0.0377 -0.00195 0.0
          0.0364 -0.00195 0.0
          0.0351 -0.00195 0.0
          0.0338 -0.00195 0.0
          0.0325 -0.00195 0.0
          0.0312 -0.00195 0.0
          0.0299 -0.00195 0.0
          0.0286 -0.00195 0.0
          0.0273 -0.00195 0.0
          0.026 -0.00195 0.0
          0.0247 -0.00195 0.0
          0.0234 -0.00195 0.0
          0.0221 -0.00195 0.0
          0.0208 -0.00195 0.0
          0.0195 -0.00195 0.0
          0.0182 -0.00195 0.0
          0.0169 -0.00195 0.0
          0.0156 -0.00195 0.0
          0.0143 -0.00195 0.0
          0.013 -0.00195 0.0
          0.0117 -0.00195 0.0
          0.0104 -0.00195 0.0
          0.0091 -0.00195 0.0
          0.0078 -0.00195 0.0
          0.0065 -0.00195 0.0
          0.0052 -0.00195 0.0
          0.0039 -0.00195 0.0
          0.0026 -0.00195 0.0
          0.0013 -0.00195 0.0
          0 -0.00195 0.0
          0.039 -0.00325 0.0
          0.0377 -0.00325 0.0
          0.0364 -0.00325 0.0
          0.0351 -0.00325 0.0
          0.0338 -0.00325 0.0
          0.0325 -0.00325 0.0
          0.0312 -0.00325 0.0
          0.0299 -0.00325 0.0
          0.0286 -0.00325 0.0
          0.0273 -0.00325 0.0
          0.026 -0.00325 0.0
          0.0247 -0.00325 0.0
          0.0234 -0.00325 0.0
          0.0221 -0.00325 0.0
          0.0208 -0.00325 0.0
          0.0195 -0.00325 0.0
          0.0182 -0.00325 0.0
          0.0169 -0.00325 0.0
          0.0156 -0.00325 0.0
          0.0143 -0.00325 0.0
          0.013 -0.00325 0.0
          0.0117 -0.00325 0.0
          0.0104 -0.00325 0.0
          0.0091 -0.00325 0.0
          0.0078 -0.00325 0.0
          0.0065 -0.00325 0.0
          0.0052 -0.00325 0.0
          0.0039 -0.00325 0.0
          0.0026 -0.00325 0.0
          0.0013 -0.00325 0.0
          0 -0.00325 0.0
          0.039 -0.00455 0.0
          0.0377 -0.00455 0.0
          0.0364 -0.00455 0.0
          0.0351 -0.00455 0.0
          0.0338 -0.00455 0.0
          0.0325 -0.00455 0.0
          0.0312 -0.00455 0.0
          0.0299 -0.00455 0.0
          0.0286 -0.00455 0.0
          0.0273 -0.00455 0.0
          0.026 -0.00455 0.0
          0.0247 -0.00455 0.0
          0.0234 -0.00455 0.0
          0.0221 -0.00455 0.0
          0.0208 -0.00455 0.0
          0.0195 -0.00455 0.0
          0.0182 -0.00455 0.0
          0.0169 -0.00455 0.0
          0.0156 -0.00455 0.0
          0.0143 -0.00455 0.0
          0.013 -0.00455 0.0
          0.0117 -0.00455 0.0
          0.0104 -0.00455 0.0
          0.0091 -0.00455 0.0
          0.0078 -0.00455 0.0
          0.0065 -0.00455 0.0
          0.0052 -0.00455 0.0
          0.0039 -0.00455 0.0
          0.0026 -0.00455 0.0
          0.0013 -0.00455 0.0
          0 -0.00455 0.0
          0.039 -0.00585 0.0
          0.0377 -0.00585 0.0
          0.0364 -0.00585 0.0
          0.0351 -0.00585 0.0
          0.0338 -0.00585 0.0
          0.0325 -0.00585 0.0
          0.0312 -0.00585 0.0
          0.0299 -0.00585 0.0
          0.0286 -0.00585 0.0
          0.0273 -0.00585 0.0
          0.026 -0.00585 0.0
          0.0247 -0.00585 0.0
          0.0234 -0.00585 0.0
          0.0221 -0.00585 0.0
          0.0208 -0.00585 0.0
          0.0195 -0.00585 0.0
          0.0182 -0.00585 0.0
          0.0169 -0.00585 0.0
          0.0156 -0.00585 0.0
          0.0143 -0.00585 0.0
          0.013 -0.00585 0.0
          0.0117 -0.00585 0.0
          0.0104 -0.00585 0.0
          0.0091 -0.00585 0.0
          0.0078 -0.00585 0.0
          0.0065 -0.00585 0.0
          0.0052 -0.00585 0.0
          0.0039 -0.00585 0.0
          0.0026 -0.00585 0.0
          0.0013 -0.00585 0.0
          0 -0.00585 0.0
          0.039 -0.00715 0.0
          0.0377 -0.00715 0.0
          0.0364 -0.00715 0.0
          0.0351 -0.00715 0.0
          0.0338 -0.00715 0.0
          0.0325 -0.00715 0.0
          0.0312 -0.00715 0.0
          0.0299 -0.00715 0.0
          0.0286 -0.00715 0.0
          0.0273 -0.00715 0.0
          0.026 -0.00715 0.0
          0.0247 -0.00715 0.0
          0.0234 -0.00715 0.0
          0.0221 -0.00715 0.0
          0.0208 -0.00715 0.0
          0.0195 -0.00715 0.0
          0.0182 -0.00715 0.0
          0.0169 -0.00715 0.0
          0.0156 -0.00715 0.0
          0.0143 -0.00715 0.0
          0.013 -0.00715 0.0
          0.0117 -0.00715 0.0
          0.0104 -0.00715 0.0
          0.0091 -0.00715 0.0
          0.0078 -0.00715 0.0
          0.0065 -0.00715 0.0
          0.0052 -0.00715 0.0
          0.0039 -0.00715 0.0
          0.0026 -0.00715 0.0
          0.0013 -0.00715 0.0
          0 -0.00715 0.0
          0.039 -0.00845 0.0
          0.0377 -0.00845 0.0
          0.0364 -0.00845 0.0
          0.0351 -0.00845 0.0
          0.0338 -0.00845 0.0
          0.0325 -0.00845 0.0
          0.0312 -0.00845 0.0
          0.0299 -0.00845 0.0
          0.0286 -0.00845 0.0
          0.0273 -0.00845 0.0
          0.026 -0.00845 0.0
          0.0247 -0.00845 0.0
          0.0234 -0.00845 0.0
          0.0221 -0.00845 0.0
          0.0208 -0.00845 0.0
          0.0195 -0.00845 0.0
          0.0182 -0.00845 0.0
          0.0169 -0.00845 0.0
          0.0156 -0.00845 0.0
          0.0143 -0.00845 0.0
          0.013 -0.00845 0.0
          0.0117 -0.00845 0.0
          0.0104 -0.00845 0.0
          0.0091 -0.00845 0.0
          0.0078 -0.00845 0.0
          0.0065 -0.00845 0.0
          0.0052 -0.00845 0.0
          0.0039 -0.00845 0.0
          0.0026 -0.00845 0.0
          0.0013 -0.00845 0.0
          0 -0.00845 0.0
          0.039 -0.00975 0.0
          0.0377 -0.00975 0.0
          0.0364 -0.00975 0.0
          0.0351 -0.00975 0.0
          0.0338 -0.00975 0.0
          0.0325 -0.00975 0.0
          0.0312 -0.00975 0.0
          0.0299 -0.00975 0.0
          0.0286 -0.00975 0.0
          0.0273 -0.00975 0.0
          0.026 -0.00975 0.0
          0.0247 -0.00975 0.0
          0.0234 -0.00975 0.0
          0.0221 -0.00975 0.0
          0.0208 -0.00975 0.0
          0.0195 -0.00975 0.0
          0.0182 -0.00975 0.0
          0.0169 -0.00975 0.0
          0.0156 -0.00975 0.0
          0.0143 -0.00975 0.0
          0.013 -0.00975 0.0
          0.0117 -0.00975 0.0
          0.0104 -0.00975 0.0
          0.0091 -0.00975 0.0
          0.0078 -0.00975 0.0
          0.0065 -0.00975 0.0
          0.0052 -0.00975 0.0
          0.0039 -0.00975 0.0
          0.0026 -0.00975 0.0
          0.0013 -0.00975 0.0
          0 -0.00975 0.0
          0.039 -0.01105 0.0
          0.0377 -0.01105 0.0
          0.0364 -0.01105 0.0
          0.0351 -0.01105 0.0
          0.0338 -0.01105 0.0
          0.0325 -0.01105 0.0
          0.0312 -0.01105 0.0
          0.0299 -0.01105 0.0
          0.0286 -0.01105 0.0
          0.0273 -0.01105 0.0
          0.026 -0.01105 0.0
          0.0247 -0.01105 0.0
          0.0234 -0.01105 0.0
          0.0221 -0.01105 0.0
          0.0208 -0.01105 0.0
          0.0195 -0.01105 0.0
          0.0182 -0.01105 0.0
          0.0169 -0.01105 0.0
          0.0156 -0.01105 0.0
          0.0143 -0.01105 0.0
          0.013 -0.01105 0.0
          0.0117 -0.01105 0.0
          0.0104 -0.01105 0.0
          0.0091 -0.01105 0.0
          0.0078 -0.01105 0.0
          0.0065 -0.01105 0.0
          0.0052 -0.01105 0.0
          0.0039 -0.01105 0.0
          0.0026 -0.01105 0.0
          0.0013 -0.01105 0.0
          0 -0.01105 0.0
          0.039 -0.01235 0.0
          0.0377 -0.01235 0.0
          0.0364 -0.01235 0.0
          0.0351 -0.01235 0.0
          0.0338 -0.01235 0.0
          0.0325 -0.01235 0.0
          0.0312 -0.01235 0.0
          0.0299 -0.01235 0.0
          0.0286 -0.01235 0.0
          0.0273 -0.01235 0.0
          0.026 -0.01235 0.0
          0.0247 -0.01235 0.0
          0.0234 -0.01235 0.0
          0.0221 -0.01235 0.0
          0.0208 -0.01235 0.0
          0.0195 -0.01235 0.0
          0.0182 -0.01235 0.0
          0.0169 -0.01235 0.0
          0.0156 -0.01235 0.0
          0.0143 -0.01235 0.0
          0.013 -0.01235 0.0
          0.0117 -0.01235 0.0
          0.0104 -0.01235 0.0
          0.0091 -0.01235 0.0
          0.0078 -0.01235 0.0
          0.0065 -0.01235 0.0
          0.0052 -0.01235 0.0
          0.0039 -0.01235 0.0
          0.0026 -0.01235 0.0
          0.0013 -0.01235 0.0
          0 -0.01235 0.0
          0.039 -0.01365 0.0
          0.0377 -0.01365 0.0
          0.0364 -0.01365 0.0
          0.0351 -0.01365 0.0
          0.0338 -0.01365 0.0
          0.0325 -0.01365 0.0
          0.0312 -0.01365 0.0
          0.0299 -0.01365 0.0
          0.0286 -0.01365 0.0
          0.0273 -0.01365 0.0
          0.026 -0.01365 0.0
          0.0247 -0.01365 0.0
          0.0234 -0.01365 0.0
          0.0221 -0.01365 0.0
          0.0208 -0.01365 0.0
          0.0195 -0.01365 0.0
          0.0182 -0.01365 0.0
          0.0169 -0.01365 0.0
          0.0156 -0.01365 0.0
          0.0143 -0.01365 0.0
          0.013 -0.01365 0.0
          0.0117 -0.01365 0.0
          0.0104 -0.01365 0.0
          0.0091 -0.01365 0.0
          0.0078 -0.01365 0.0
          0.0065 -0.01365 0.0
          0.0052 -0.01365 0.0
          0.0039 -0.01365 0.0
          0.0026 -0.01365 0.0
          0.0013 -0.01365 0.0
          0 -0.01365 0.0
          0.039 -0.01495 0.0
          0.0377 -0.01495 0.0
          0.0364 -0.01495 0.0
          0.0351 -0.01495 0.0
          0.0338 -0.01495 0.0
          0.0325 -0.01495 0.0
          0.0312 -0.01495 0.0
          0.0299 -0.01495 0.0
          0.0286 -0.01495 0.0
          0.0273 -0.01495 0.0
          0.026 -0.01495 0.0
          0.0247 -0.01495 0.0
          0.0234 -0.01495 0.0
          0.0221 -0.01495 0.0