<?xml version="1.0"?>
<VTKFile type="UnstructuredGrid" version="0.1" byte_order="LittleEndian">
  <UnstructuredGrid>
    <Piece NumberOfPoints="961" NumberOfCells="900">
      <PointData Scalars="Temperature">
        <DataArray type="Float32" Name="Temperature" format="ascii">
          21.0017
          21.0287
          21.0567
          21.0846
          21.108
          21.1235
          21.1297
          21.13
          21.1288
          21.1299
          21.1333
          21.1365
          21.1368
          21.1343
          21.1318
          21.132
          21.1347
          21.1374
          21.1372
          21.1341
          21.1308
          21.1298
          21.1312
          21.1313
          21.1258
          21.1118
          21.0907
          21.0662
          21.0426
          21.0211
          21.0013
          21.0279
          21.4625
          21.9284
          22.3954
          22.8
          23.0538
          23.1472
          23.1297
          23.0976
          23.1157
          23.1846
          23.248
          23.252
          23.199
          23.1461
          23.1488
          23.2065
          23.2626
          23.2602
          23.1979
          23.1304
          23.1146
          23.1498
          23.1721
          23.0897
          22.8584
          22.4928
          22.0809
          21.6861
          21.3403
          21.0205
          21.0518
          21.8623
          22.7435
          23.7958
          24.6504
          25.1933
          25.2842
          25.1392
          24.9865
          25.0266
          25.2439
          25.4493
          25.4533
          25.2652
          25.0784
          25.0851
          25.2817
          25.4758
          25.4734
          25.269
          25.054
          25.0189
          25.1774
          25.329
          25.2487
          24.7461
          23.9665
          23.0261
          22.2795
          21.6342
          21.0382
          21.0717
          22.1926
          23.4222
          24.8936
          27.5405
          27.5408
          27.5409
          27.5407
          26.3988
          26.455
          27.7416
          27.7417
          27.7417
          27.7416
          26.5211
          26.531
          27.7779
          27.778
          27.778
          27.7778
          26.4916
          26.4424
          27.602
          27.6021
          27.602
          27.6017
          25.1195
          23.8141
          22.7753
          21.8823
          21.0532
          21.0862
          22.4301
          23.8763
          25.5901
          27.5414
          27.5415
          27.5416
          27.5416
          27.2242
          27.2911
          27.7424
          27.7424
          27.7424
          27.7424
          27.3641
          27.3762
          27.7787
          27.7787
          27.7787
          27.7787
          27.333
          27.2744
          27.6028
          27.6028
          27.6028
          27.6027
          25.8552
          24.355
          23.1437
          22.072
          21.0648
          21.0953
          22.5744
          24.126
          25.7896
          27.5434
          27.5435
          27.5436
          27.5436
          27.4865
          27.5534
          27.7443
          27.7443
          27.7443
          27.7443
          27.6305
          27.6426
          27.7806
          27.7806
          27.7806
          27.7806
          27.5972
          27.5386
          27.6048
          27.6048
          27.6047
          27.6046
          26.0876
          24.67
          23.384
          22.2027
          21.0729
          21.1003
          22.6499
          24.2351
          25.8714
          27.5465
          27.5466
          27.5466
          27.5466
          27.5713
          27.6381
          27.7473
          27.7473
          27.7473
          27.7473
          27.7165
          27.7286
          27.7836
          27.7836
          27.7836
          27.7836
          27.6825
          27.6239
          27.6078
          27.6078
          27.6078
          27.6077
          26.1935
          24.8259
          23.5252
          22.2844
          21.078
          21.1027
          22.6854
          24.2849
          25.9083
          27.5507
          27.5508
          27.5508
          27.5509
          27.601
          27.6679
          27.7514
          27.7514
          27.7514
          27.7514
          27.7467
          27.7588
          27.7877
          27.7877
          27.7877
          27.7877
          27.7124
          27.6538
          27.612
          27.612
          27.612
          27.6119
          26.2471
          24.9072
          23.6028
          22.3318
          21.0811
          21.1039
          22.7021
          24.3086
          25.9271
          27.556
          27.5561
          27.5562
          27.5562
          27.6144
          27.6812
          27.7566
          27.7566
          27.7566
          27.7566
          27.76
          27.7721
          27.7929
          27.7929
          27.7929
          27.7929
          27.7257
          27.6672
          27.6173
          27.6173
          27.6173
          27.6172
          26.277
          24.9512
          23.6454
          22.3583
          21.0828
          21.1044
          22.7106
          24.3212
          25.9385
          27.5625
          27.5626
          27.5626
          27.5626
          27.6233
          27.69
          27.7629
          27.7629
          27.7629
          27.7629
          27.7689
          27.781
          27.7992
          27.7992
          27.7992
          27.7992
          27.7346
          27.6761
          27.6238
          27.6238
          27.6237
          27.6236
          26.2954
          24.9765
          23.6695
          22.3733
          21.0838
          21.1047
          22.7157
          24.3292
          25.9471
          27.5701
          27.5701
          27.5702
          27.5702
          27.6316
          27.6983
          27.7703
          27.7703
          27.7703
          27.7703
          27.7771
          27.7892
          27.8066
          27.8066
          27.8066
          27.8066
          27.7429
          27.6844
          27.6313
          27.6313
          27.6313
          27.6312
          26.3084
          24.9923
          23.6839
          22.3821
          21.0844
          21.105
          22.7193
          24.3355
          25.955
          27.5788
          27.5788
          27.5789
          27.5789
          27.6405
          27.7071
          27.7788
          27.7788
          27.7788
          27.7788
          27.7858
          27.7979
          27.8151
          27.8151
          27.8151
          27.8151
          27.7516
          27.6933
          27.64
          27.64
          27.6399
          27.6399
          26.319
          25.0035
          23.6935
          22.3878
          21.0847
          21.1052
          22.7224
          24.3413
          25.9629
          27.5886
          27.5887
          27.5887
          27.5887
          27.6503
          27.7168
          27.7883
          27.7884
          27.7884
          27.7884
          27.7954
          27.8076
          27.8247
          27.8247
          27.8247
          27.8247
          27.7614
          27.7031
          27.6498
          27.6497
          27.6497
          27.6496
          26.3288
          25.0127
          23.7007
          22.392
          21.085
          21.1054
          22.7256
          24.3472
          25.9715
          27.5995
          27.5996
          27.5997
          27.5997
          27.6612
          27.7276
          27.799
          27.799
          27.799
          27.799
          27.8061
          27.8183
          27.8354
          27.8354
          27.8354
          27.8353
          27.7721
          27.7139
          27.6607
          27.6606
          27.6606
          27.6605
          26.3387
          25.0212
          23.7071
          22.3955
          21.0852
          21.1056
          22.7289
          24.3536
          25.9807
          27.6116
          27.6117
          27.6117
          27.6117
          27.6731
          27.7395
          27.8108
          27.8108
          27.8108
          27.8108
          27.8179
          27.83
          27.8471
          27.8471
          27.8471
          27.8471
          27.784
          27.7259
          27.6727
          27.6727
          27.6726
          27.6725
          26.3492
          25.0298
          23.7133
          22.3989
          21.0854
          21.1058
          22.7325
          24.3605
          25.9908
          27.6248
          27.6249
          27.6249
          27.6249
          27.6862
          27.7525
          27.8236
          27.8237
          27.8237
          27.8237
          27.8308
          27.8429
          27.86
          27.86
          27.86
          27.86
          27.797
          27.7389
          27.6858
          27.6858
          27.6857
          27.6857
          26.3606
          25.0391
          23.7201
          22.4025
          21.0856
          21.106
          22.7365
          24.3681
          26.0018
          27.6391
          27.6392
          27.6392
          27.6393
          27.7004
          27.7665
          27.8376
          27.8376
          27.8376
          27.8376
          27.8448
          27.8569
          27.874
          27.874
          27.874
          27.874
          27.811
          27.7531
          27.7001
          27.7
          27.7
          27.6999
          26.3732
          25.0497
          23.7279
          22.4068
          21.0859
          21.1063
          22.7411
          24.3767
          26.014
          27.6545
          27.6546
          27.6547
          27.6547
          27.7157
          27.7817
          27.8527
          27.8527
          27.8527
          27.8527
          27.8598
          27.8719
          27.889
          27.889
          27.889
          27.889
          27.8262
          27.7683
          27.7154
          27.7154
          27.7154
          27.7153
          26.3876
          25.0624
          23.7376
          22.4122
          21.0863
          21.1067
          22.7467
          24.3868
          26.0276
          27.6711
          27.6712
          27.6712
          27.6712
          27.7321
          27.798
          27.8688
          27.8688
          27.8688
          27.8688
          27.876
          27.8881
          27.9052
          27.9052
          27.9052
          27.9052
          27.8425
          27.7847
          27.7319
          27.7319
          27.7318
          27.7318
          26.4048
          25.0787
          23.7507
          22.4198
          21.0867
          21.1072
          22.754
          24.3995
          26.0436
          27.6888
          27.6889
          27.6889
          27.6889
          27.7497
          27.8154
          27.886
          27.886
          27.886
          27.8861
          27.8932
          27.9053
          27.9224
          27.9224
          27.9224
          27.9224
          27.8598
          27.8022
          27.7495
          27.7495
          27.7494
          27.7494
          26.4262
          25.1012
          23.77
          22.4312
          21.0875
          21.1077
          22.7652
          24.4174
          26.0636
          27.7076
          27.7077
          27.7077
          27.7077
          27.7683
          27.8339
          27.9044
          27.9044
          27.9044
          27.9044
          27.9116
          27.9237
          27.9408
          27.9408
          27.9408
          27.9408
          27.8783
          27.8208
          27.7682
          27.7682
          27.7682
          27.7681
          26.455
          25.1351
          23.8005
          22.45
          21.0885
          21.1099
          22.7841
          24.4467
          26.0919
          27.7275
          27.7276
          27.7276
          27.7277
          27.7881
          27.8535
          27.9238
          27.9238
          27.9238
          27.9238
          27.9311
          27.9432
          27.9602
          27.9602
          27.9602
          27.9602
          27.8979
          27.8405
          27.7881
          27.788
          27.788
          27.7879
          26.497
          25.1899
          23.8524
          22.482
          21.0916
          21.1082
          22.8226
          24.4999
          26.1378
          27.7485
          27.7486
          27.7487
          27.7488
          27.809
          27.8742
          27.9442
          27.9443
          27.9444
          27.9444
          27.9519
          27.9641
          27.9808
          27.9808
          27.9807
          27.9807
          27.9186
          27.8614
          27.8091
          27.809
          27.8089
          27.8088
          26.5626
          25.2834
          23.9439
          22.5421
          21.0911
          21.1325
          22.8944
          24.6103
          26.2211
          27.7705
          27.7707
          27.7709
          27.7711
          27.8312
          27.896
          27.9657
          27.9658
          27.9661
          27.9662
          27.9744
          27.9865
          28.0025
          28.0024
          28.0023
          28.0022
          27.9406
          27.8837
          27.8313
          27.8311
          27.8309
          27.8308
          26.67
          25.4475
          24.1152
          22.6469
          21.1176
          21.0599
          23.094
          24.8332
          26.3889
          27.7934
          27.7938
          27.7944
          27.7948
          27.8548
          27.9189
          27.9879
          27.9883
          27.9891
          27.9894
          27.9994
          28.0114
          28.0256
          28.0253
          28.0248
          28.0246
          27.964
          27.9076
          27.8548
          27.8545
          27.8539
          27.8535
          26.8455
          25.7433
          24.4283
          22.8942
          21.0474
          21.4649
          23.3866
          25.3756
          26.7049
          27.8165
          27.8176
          27.8195
          27.8205
          27.8809
          27.9434
          28.0099
          28.0112
          28.0137
          28.015
          28.0294
          28.0411
          28.0505
          28.0496
          28.0481
          28.0473
          27.9896
          27.9346
          27.8805
          27.8794
          27.8775
          27.8764
          27.1137
          26.2439
          25.0947
          23.2498
          21.459
          19.8721
          25.0001
          26.3998
          27.2091
          27.8382
          27.8407
          27.8474
          27.8498
          27.9135
          27.9697
          28.0297
          28.0329
          28.0417
          28.0449
          28.0709
          28.0813
          28.0786
          28.0766
          28.071
          28.069
          28.019
          27.9692
          27.9098
          27.9073
          27.9004
          27.8979
          27.4786
          26.9869
          26.2739
          24.9479
          19.8593
          27.8282
          27.8379
          27.8455
          27.8527
          27.8557
          27.8603
          27.8735
          27.9006
          27.9601
          28.0014
          28.0366
          28.0532
          28.0708
          28.0954
          28.1353
          28.1427
          28.1204
          28.1043
          28.0933
          28.0832
          28.0576
          28.0197
          27.9609
          27.9335
          27.9198
          27.9146
          27.9102
          27.902
          27.894
          27.8861
          27.8763
          27.832
          27.8388
          27.8461
          27.8536
          27.8623
          27.8744
          27.8936
          27.9241
          27.9625
          28.0045
          28.0419
          28.074
          28.1011
          28.1262
          28.1452
          28.1525
          28.1469
          28.1338
          28.1172
          28.0942
          28.0629
          28.0234
          27.985
          27.9538
          27.9338
          27.9207
          27.911
          27.9025
          27.8944
          27.887
          27.8801
          27.8363
          27.8408
          27.8472
          27.8557
          27.8669
          27.8823
          27.904
          27.933
          27.969
          28.0104
          28.0574
          28.1008
          28.1335
          28.1578
          28.174
          28.1808
          28.1779
          28.1664
          28.1471
          28.1184
          28.0773
          28.0326
          27.9947
          27.9645
          27.9417
          27.9252
          27.9129
          27.9032
          27.8951
          27.8888
          27.8843
          27.8394
          27.8416
          27.8478
          27.8566
          27.8685
          27.8848
          27.907
          27.9359
          27.9714
          28.0135
          28.0665
          28.1166
          28.1511
          28.1757
          28.1914
          28.1981
          28.1956
          28.1844
          28.1643
          28.1336
          28.0864
          28.0363
          27.998
          27.9676
          27.9442
          27.9268
          27.9137
          27.9036
          27.8955
          27.8895
          27.8875
        </DataArray>
      </PointData>
      <CellData>
      </CellData>
      <Points>
        <DataArray type="Float32" NumberOfComponents="3" format="ascii">
          0.039 0.00195 0.0
          0.0377 0.00195 0.0
          0.0364 0.00195 0.0
          0.0351 0.00195 0.0
          0.0338 0.00195 0.0
          0.0325 0.00195 0.0
          0.0312 0.00195 0.0
          0.0299 0.00195 0.0
          0.0286 0.00195 0.0
          0.0273 0.00195 0.0
          0.026 0.00195 0.0
          0.0247 0.00195 0.0
          0.0234 0.00195 0.0
          0.0221 0.00195 0.0
          0.0208 0.00195 0.0
          0.0195 0.00195 0.0
          0.0182 0.00195 0.0
          0.0169 0.00195 0.0
          0.0156 0.00195 0.0
          0.0143 0.00195 0.0
          0.013 0.00195 0.0
          0.0117 0.00195 0.0
          0.0104 0.00195 0.0
          0.0091 0.00195 0.0
          0.0078 0.00195 0.0
          0.0065 0.00195 0.0
          0.0052 0.00195 0.0
          0.0039 0.00195 0.0
          0.0026 0.00195 0.0
          0.0013 0.00195 0.0
          0 0.00195 0.0
          0.039 0.00065 0.0
          0.0377 0.00065 0.0
          0.0364 0.00065 0.0
          0.0351 0.00065 0.0
          0.0338 0.00065 0.0
          0.0325 0.00065 0.0
          0.0312 0.00065 0.0
          0.0299 0.00065 0.0
          0.0286 0.00065 0.0
          0.0273 0.00065 0.0
          0.026 0.00065 0.0
          0.0247 0.00065 0.0
          0.0234 0.00065 0.0
          0.0221 0.00065 0.0
          0.0208 0.00065 0.0
          0.0195 0.00065 0.0
          0.0182 0.00065 0.0
          0.0169 0.00065 0.0
          0.0156 0.00065 0.0
          0.0143 0.00065 0.0
          0.013 0.00065 0.0
          0.0117 0.00065 0.0
          0.0104 0.00065 0.0
          0.0091 0.00065 0.0
          0.0078 0.00065 0.0
          0.0065 0.00065 0.0
          0.0052 0.00065 0.0
          0.0039 0.00065 0.0
          0.0026 0.00065 0.0
          0.0013 0.00065 0.0
          0 0.00065 0.0
          0.039 -0.00065 0.0
          0.0377 -0.00065 0.0
          0.0364 -0.00065 0.0
          0.0351 -0.00065 0.0
          0.0338 -0.00065 0.0
          0.0325 -0.00065 0.0
          0.0312 -0.00065 0.0
          0.0299 -0.00065 0.0
          0.0286 -0.00065 0.0
          0.0273 -0.00065 0.0
          0.026 -0.00065 0.0
          0.0247 -0.00065 0.0
          0.0234 -0.00065 0.0
          0.0221 -0.00065 0.0
          0.0208 -0.00065 0.0
          0.0195 -0.00065 0.0
          0.0182 -0.00065 0.0
          0.0169 -0.00065 0.0
          0.0156 -0.00065 0.0
          0.0143 -0.00065 0.0
          0.013 -0.00065 0.0
          0.0117 -0.00065 0.0
          0.0104 -0.00065 0.0
          0.0091 -0.00065 0.0
          0.0078 -0.00065 0.0
          0.0065 -0.00065 0.0
          0.0052 -0.00065 0.0
          0.0039 -0.00065 0.0
          0.0026 -0.00065 0.0
          0.0013 -0.00065 0.0
          0 -0.00065 0.0
          0.039 -0.00195 0.0
          0.0377 -0.00195 0.0
          0.0364 -0.00195 0.0
          0.0351 -0.00195 0.0
          0.0338 -0.00195 0.0
          0.0325 -0.00195 0.0
          0.0312 -0.00195 0.0
          0.0299 -0.00195 0.0
          0.0286 -0.00195 0.0
          0.0273 -0.00195 0.0
          0.026 -0.00195 0.0
          0.0247 -0.00195 0.0
          0.0234 -0.00195 0.0
          0.0221 -0.00195 0.0
          0.0208 -0.00195 0.0
          0.0195 -0.00195 0.0
          0.0182 -0.00195 0.0
          0.0169 -0.00195 0.0
          0.0156 -0.00195 0.0
          0.0143 -0.00195 0.0
          0.013 -0.00195 0.0
          0.0117 -0.00195 0.0
          0.0104 -0.00195 0.0
          0.0091 -0.00195 0.0
          0.0078 -0.00195 0.0
          0.0065 -0.00195 0.0
          0.0052 -0.00195 0.0
          0.0039 -0.00195 0.0
          0.0026 -0.00195 0.0
          0.0013 -0.00195 0.0
          0 -0.00195 0.0
          0.039 -0.00325 0.0
          0.0377 -0.00325 0.0
          0.0364 -0.00325 0.0
          0.0351 -0.00325 0.0
          0.0338 -0.00325 0.0
          0.0325 -0.00325 0.0
          0.0312 -0.00325 0.0
          0.0299 -0.00325 0.0
          0.0286 -0.00325 0.0
          0.0273 -0.00325 0.0
          0.026 -0.00325 0.0
          0.0247 -0.00325 0.0
          0.0234 -0.00325 0.0
          0.0221 -0.00325 0.0
          0.0208 -0.00325 0.0
          0.0195 -0.00325 0.0
          0.0182 -0.00325 0.0
          0.0169 -0.00325 0.0
          0.0156 -0.00325 0.0
          0.0143 -0.00325 0.0
          0.013 -0.00325 0.0
          0.0117 -0.00325 0.0
          0.0104 -0.00325 0.0
          0.0091 -0.00325 0.0
          0.0078 -0.00325 0.0
          0.0065 -0.00325 0.0
          0.0052 -0.00325 0.0
          0.0039 -0.00325 0.0
          0.0026 -0.00325 0.0
          0.0013 -0.00325 0.0
          0 -0.00325 0.0
          0.039 -0.00455 0.0
          0.0377 -0.00455 0.0
          0.0364 -0.00455 0.0
          0.0351 -0.00455 0.0
          0.0338 -0.00455 0.0
          0.0325 -0.00455 0.0
          0.0312 -0.00455 0.0
          0.0299 -0.00455 0.0
          0.0286 -0.00455 0.0
          0.0273 -0.00455 0.0
          0.026 -0.00455 0.0
          0.0247 -0.00455 0.0
          0.0234 -0.00455 0.0
          0.0221 -0.00455 0.0
          0.0208 -0.00455 0.0
          0.0195 -0.00455 0.0
          0.0182 -0.00455 0.0
          0.0169 -0.00455 0.0
          0.0156 -0.00455 0.0
          0.0143 -0.00455 0.0
          0.013 -0.00455 0.0
          0.0117 -0.00455 0.0
          0.0104 -0.00455 0.0
          0.0091 -0.00455 0.0
          0.0078 -0.00455 0.0
          0.0065 -0.00455 0.0
          0.0052 -0.00455 0.0
          0.0039 -0.00455 0.0
          0.0026 -0.00455 0.0
          0.0013 -0.00455 0.0
          0 -0.00455 0.0
          0.039 -0.00585 0.0
          0.0377 -0.00585 0.0
          0.0364 -0.00585 0.0
          0.0351 -0.00585 0.0
          0.0338 -0.00585 0.0
          0.0325 -0.00585 0.0
          0.0312 -0.00585 0.0
          0.0299 -0.00585 0.0
          0.0286 -0.00585 0.0
          0.0273 -0.00585 0.0
          0.026 -0.00585 0.0
          0.0247 -0.00585 0.0
          0.0234 -0.00585 0.0
          0.0221 -0.00585 0.0
          0.0208 -0.00585 0.0
          0.0195 -0.00585 0.0
          0.0182 -0.00585 0.0
          0.0169 -0.00585 0.0
          0.0156 -0.00585 0.0
          0.0143 -0.00585 0.0
          0.013 -0.00585 0.0
          0.0117 -0.00585 0.0
          0.0104 -0.00585 0.0
          0.0091 -0.00585 0.0
          0.0078 -0.00585 0.0
          0.0065 -0.00585 0.0
          0.0052 -0.00585 0.0
          0.0039 -0.00585 0.0
          0.0026 -0.00585 0.0
          0.0013 -0.00585 0.0
          0 -0.00585 0.0
          0.039 -0.00715 0.0
          0.0377 -0.00715 0.0
          0.0364 -0.00715 0.0
          0.0351 -0.00715 0.0
          0.0338 -0.00715 0.0
          0.0325 -0.00715 0.0
          0.0312 -0.00715 0.0
          0.0299 -0.00715 0.0
          0.0286 -0.00715 0.0
          0.0273 -0.00715 0.0
          0.026 -0.00715 0.0
          0.0247 -0.00715 0.0
          0.0234 -0.00715 0.0
          0.0221 -0.00715 0.0
          0.0208 -0.00715 0.0
          0.0195 -0.00715 0.0
          0.0182 -0.00715 0.0
          0.0169 -0.00715 0.0
          0.0156 -0.00715 0.0
          0.0143 -0.00715 0.0
          0.013 -0.00715 0.0
          0.0117 -0.00715 0.0
          0.0104 -0.00715 0.0
          0.0091 -0.00715 0.0
          0.0078 -0.00715 0.0
          0.0065 -0.00715 0.0
          0.0052 -0.00715 0.0
          0.0039 -0.00715 0.0
          0.0026 -0.00715 0.0
          0.0013 -0.00715 0.0
          0 -0.00715 0.0
          0.039 -0.00845 0.0
          0.0377 -0.00845 0.0
          0.0364 -0.00845 0.0
          0.0351 -0.00845 0.0
          0.0338 -0.00845 0.0
          0.0325 -0.00845 0.0
          0.0312 -0.00845 0.0
          0.0299 -0.00845 0.0
          0.0286 -0.00845 0.0
          0.0273 -0.00845 0.0
          0.026 -0.00845 0.0
          0.0247 -0.00845 0.0
          0.0234 -0.00845 0.0
          0.0221 -0.00845 0.0
          0.0208 -0.00845 0.0
          0.0195 -0.00845 0.0
          0.0182 -0.00845 0.0
          0.0169 -0.00845 0.0
          0.0156 -0.00845 0.0
          0.0143 -0.00845 0.0
          0.013 -0.00845 0.0
          0.0117 -0.00845 0.0
          0.0104 -0.00845 0.0
          0.0091 -0.00845 0.0
          0.0078 -0.00845 0.0
          0.0065 -0.00845 0.0
          0.0052 -0.00845 0.0
          0.0039 -0.00845 0.0
          0.0026 -0.00845 0.0
          0.0013 -0.00845 0.0
          0 -0.00845 0.0
          0.039 -0.00975 0.0
          0.0377 -0.00975 0.0
          0.0364 -0.00975 0.0
          0.0351 -0.00975 0.0
          0.0338 -0.00975 0.0
          0.0325 -0.00975 0.0
          0.0312 -0.00975 0.0
          0.0299 -0.00975 0.0
          0.0286 -0.00975 0.0
          0.0273 -0.00975 0.0
          0.026 -0.00975 0.0
          0.0247 -0.00975 0.0
          0.0234 -0.00975 0.0
          0.0221 -0.00975 0.0
          0.0208 -0.00975 0.0
          0.0195 -0.00975 0.0
          0.0182 -0.00975 0.0
          0.0169 -0.00975 0.0
          0.0156 -0.00975 0.0
          0.0143 -0.00975 0.0
          0.013 -0.00975 0.0
          0.0117 -0.00975 0.0
          0.0104 -0.00975 0.0
          0.0091 -0.00975 0.0
          0.0078 -0.00975 0.0
          0.0065 -0.00975 0.0
          0.0052 -0.00975 0.0
          0.0039 -0.00975 0.0
          0.0026 -0.00975 0.0
          0.0013 -0.00975 0.0
          0 -0.00975 0.0
          0.039 -0.01105 0.0
          0.0377 -0.01105 0.0
          0.0364 -0.01105 0.0
          0.0351 -0.01105 0.0
          0.0338 -0.01105 0.0
          0.0325 -0.01105 0.0
          0.0312 -0.01105 0.0
          0.0299 -0.01105 0.0
          0.0286 -0.01105 0.0
          0.0273 -0.01105 0.0
          0.026 -0.01105 0.0
          0.0247 -0.01105 0.0
          0.0234 -0.01105 0.0
          0.0221 -0.01105 0.0
          0.0208 -0.01105 0.0
          0.0195 -0.01105 0.0
          0.0182 -0.01105 0.0
          0.0169 -0.01105 0.0
          0.0156 -0.01105 0.0
          0.0143 -0.01105 0.0
          0.013 -0.01105 0.0
          0.0117 -0.01105 0.0
          0.0104 -0.01105 0.0
          0.0091 -0.01105 0.0
          0.0078 -0.01105 0.0
          0.0065 -0.01105 0.0
          0.0052 -0.01105 0.0
          0.0039 -0.01105 0.0
          0.0026 -0.01105 0.0
          0.0013 -0.01105 0.0
          0 -0.01105 0.0
          0.039 -0.01235 0.0
          0.0377 -0.01235 0.0
          0.0364 -0.01235 0.0
          0.0351 -0.01235 0.0
          0.0338 -0.01235 0.0
          0.0325 -0.01235 0.0
          0.0312 -0.01235 0.0
          0.0299 -0.01235 0.0
          0.0286 -0.01235 0.0
          0.0273 -0.01235 0.0
          0.026 -0.01235 0.0
          0.0247 -0.01235 0.0
          0.0234 -0.01235 0.0
          0.0221 -0.01235 0.0
          0.0208 -0.01235 0.0
          0.0195 -0.01235 0.0
          0.0182 -0.01235 0.0
          0.0169 -0.01235 0.0
          0.0156 -0.01235 0.0
          0.0143 -0.01235 0.0
          0.013 -0.01235 0.0
          0.0117 -0.01235 0.0
          0.0104 -0.01235 0.0
          0.0091 -0.01235 0.0
          0.0078 -0.01235 0.0
          0.0065 -0.01235 0.0
          0.0052 -0.01235 0.0
          0.0039 -0.01235 0.0
          0.0026 -0.01235 0.0
          0.0013 -0.01235 0.0
          0 -0.01235 0.0
          0.039 -0.01365 0.0
          0.0377 -0.01365 0.0
          0.0364 -0.01365 0.0
          0.0351 -0.01365 0.0
          0.0338 -0.01365 0.0
          0.0325 -0.01365 0.0
          0.0312 -0.01365 0.0
          0.0299 -0.01365 0.0
          0.0286 -0.01365 0.0
          0.0273 -0.01365 0.0
          0.026 -0.01365 0.0
          0.0247 -0.01365 0.0
          0.0234 -0.01365 0.0
          0.0221 -0.01365 0.0
          0.0208 -0.01365 0.0
          0.0195 -0.01365 0.0
          0.0182 -0.01365 0.0
          0.0169 -0.01365 0.0
          0.0156 -0.01365 0.0
          0.0143 -0.01365 0.0
          0.013 -0.01365 0.0
          0.0117 -0.01365 0.0
          0.0104 -0.01365 0.0
          0.0091 -0.01365 0.0
          0.0078 -0.01365 0.0
          0.0065 -0.01365 0.0
          0.0052 -0.01365 0.0
          0.0039 -0.01365 0.0
          0.0026 -0.01365 0.0
          0.0013 -0.01365 0.0
          0 -0.01365 0.0
          0.039 -0.01495 0.0
          0.0377 -0.01495 0.0
          0.0364 -0.01495 0.0
          0.0351 -0.01495 0.0
          0.0338 -0.01495 0.0
          0.0325 -0.01495 0.0
          0.0312 -0.01495 0.0
          0.0299 -0.01495 0.0
          0.0286 -0.01495 0.0
          0.0273 -0.01495 0.0
          0.026 -0.01495 0.0
          0.0247 -0.01495 0.0
          0.0234 -0.01495 0.0
          0.0221 -0.01495 0.0
          0.0208 -0.01495 0.0