<?xml version="1.0"?>
<VTKFile type="UnstructuredGrid" version="0.1" byte_order="LittleEndian">
  <UnstructuredGrid>
    <Piece NumberOfPoints="961" NumberOfCells="900">
      <PointData Scalars="Temperature">
        <DataArray type="Float32" Name="Temperature" format="ascii">
          21.0024
          21.0401
          21.0791
          21.1179
          21.1506
          21.1721
          21.1808
          21.1809
          21.179
          21.1803
          21.1848
          21.189
          21.1893
          21.1858
          21.1823
          21.1825
          21.1863
          21.1899
          21.1897
          21.1856
          21.1812
          21.1801
          21.1822
          21.1826
          21.175
          21.1555
          21.1262
          21.0921
          21.0593
          21.0293
          21.0018
          21.0389
          21.645
          22.2946
          22.9456
          23.5094
          23.8628
          23.9919
          23.9651
          23.9163
          23.9363
          24.0276
          24.1126
          24.1169
          24.0428
          23.9687
          23.9715
          24.0503
          24.1276
          24.1249
          24.041
          23.9514
          23.9338
          23.9864
          24.0194
          23.9058
          23.5845
          23.0765
          22.5038
          21.9547
          21.4736
          21.0285
          21.0723
          22.2025
          23.4311
          24.8977
          26.0885
          26.8446
          26.9703
          26.7641
          26.5433
          26.5864
          26.8786
          27.1581
          27.1623
          26.9012
          26.6413
          26.648
          26.9179
          27.185
          27.1824
          26.904
          26.6143
          26.5766
          26.8038
          27.0181
          26.9074
          26.2092
          25.1257
          23.8186
          22.7802
          21.8825
          21.0531
          21.1
          22.6631
          24.3772
          26.4278
          30.1147
          30.1151
          30.1152
          30.115
          28.5071
          28.5667
          30.326
          30.3262
          30.3262
          30.326
          28.6363
          28.6463
          30.3626
          30.3628
          30.3628
          30.3626
          28.604
          28.5518
          30.1778
          30.1779
          30.1778
          30.1774
          26.7289
          24.9145
          23.4699
          22.2277
          21.074
          21.1202
          22.9941
          25.0102
          27.3981
          30.1157
          30.1159
          30.116
          30.116
          29.6548
          29.7251
          30.327
          30.327
          30.327
          30.327
          29.8015
          29.8137
          30.3635
          30.3636
          30.3636
          30.3635
          29.7677
          29.7061
          30.1787
          30.1787
          30.1787
          30.1785
          27.7515
          25.6666
          23.9823
          22.4915
          21.0901
          21.1329
          23.1951
          25.3579
          27.6758
          30.1178
          30.1179
          30.118
          30.118
          30.0183
          30.0886
          30.3289
          30.329
          30.329
          30.3289
          30.1691
          30.1813
          30.3655
          30.3655
          30.3655
          30.3655
          30.133
          30.0714
          30.1807
          30.1807
          30.1807
          30.1805
          28.0741
          26.1043
          24.3164
          22.6733
          21.1014
          21.1398
          23.3001
          25.5094
          27.7889
          30.1209
          30.121
          30.1211
          30.1211
          30.1348
          30.205
          30.3319
          30.332
          30.332
          30.332
          30.2869
          30.2991
          30.3685
          30.3685
          30.3685
          30.3685
          30.2501
          30.1885
          30.1839
          30.1838
          30.1838
          30.1837
          28.2204
          26.3204
          24.5124
          22.7867
          21.1086
          21.1432
          23.3491
          25.578
          27.8392
          30.1251
          30.1253
          30.1253
          30.1254
          30.1745
          30.2447
          30.336
          30.336
          30.336
          30.336
          30.3269
          30.3391
          30.3726
          30.3726
          30.3726
          30.3726
          30.2899
          30.2284
          30.1881
          30.188
          30.188
          30.1879
          28.2938
          26.4326
          24.6196
          22.8523
          21.1128
          21.1447
          23.3719
          25.61
          27.8638
          30.1305
          30.1306
          30.1307
          30.1307
          30.191
          30.2611
          30.3411
          30.3411
          30.3411
          30.3411
          30.3434
          30.3555
          30.3777
          30.3777
          30.3777
          30.3777
          30.3063
          30.2449
          30.1933
          30.1933
          30.1933
          30.1932
          28.3337
          26.4927
          24.6781
          22.8888
          21.1152
          21.1455
          23.3831
          25.6263
          27.8778
          30.1369
          30.137
          30.1371
          30.1371
          30.2008
          30.2709
          30.3473
          30.3473
          30.3473
          30.3473
          30.3531
          30.3653
          30.3839
          30.3839
          30.3839
          30.3839
          30.3161
          30.2547
          30.1997
          30.1997
          30.1996
          30.1995
          28.3572
          26.5263
          24.7106
          22.9091
          21.1165
          21.1459
          23.3893
          25.6359
          27.8874
          30.1444
          30.1445
          30.1446
          30.1446
          30.2093
          30.2793
          30.3545
          30.3545
          30.3545
          30.3545
          30.3614
          30.3736
          30.3911
          30.3911
          30.3911
          30.3911
          30.3245
          30.2632
          30.2072
          30.2072
          30.2071
          30.207
          28.3729
          26.5465
          24.7294
          22.9208
          21.1172
          21.1462
          23.3934
          25.6428
          27.8957
          30.153
          30.1531
          30.1532
          30.1532
          30.2182
          30.288
          30.3628
          30.3628
          30.3628
          30.3628
          30.3701
          30.3822
          30.3994
          30.3994
          30.3994
          30.3994
          30.3332
          30.272
          30.2158
          30.2157
          30.2157
          30.2156
          28.3849
          26.56
          24.7413
          22.9279
          21.1177
          21.1464
          23.3968
          25.6489
          27.9038
          30.1627
          30.1628
          30.1629
          30.1629
          30.2279
          30.2976
          30.3722
          30.3722
          30.3722
          30.3722
          30.3795
          30.3917
          30.4087
          30.4087
          30.4087
          30.4087
          30.3428
          30.2817
          30.2254
          30.2254
          30.2253
          30.2252
          28.3954
          26.5703
          24.7498
          22.9329
          21.118
          21.1466
          23.4001
          25.6549
          27.9124
          30.1735
          30.1737
          30.1737
          30.1738
          30.2386
          30.3082
          30.3826
          30.3826
          30.3826
          30.3826
          30.3899
          30.4021
          30.4191
          30.4191
          30.4191
          30.4191
          30.3534
          30.2924
          30.2361
          30.2361
          30.2361
          30.236
          28.4056
          26.5794
          24.7568
          22.9368
          21.1183
          21.1468
          23.4034
          25.6613
          27.9216
          30.1854
          30.1856
          30.1856
          30.1857
          30.2503
          30.3198
          30.394
          30.394
          30.394
          30.394
          30.4014
          30.4136
          30.4306
          30.4306
          30.4306
          30.4306
          30.3649
          30.3041
          30.248
          30.2479
          30.2479
          30.2478
          28.4162
          26.5885
          24.7635
          22.9405
          21.1185
          21.147
          23.407
          25.6682
          27.9316
          30.1984
          30.1986
          30.1986
          30.1987
          30.2632
          30.3325
          30.4065
          30.4065
          30.4065
          30.4065
          30.4139
          30.4261
          30.4431
          30.4431
          30.4431
          30.4431
          30.3776
          30.3169
          30.2609
          30.2609
          30.2608
          30.2607
          28.4277
          26.5982
          24.7707
          22.9445
          21.1188
          21.1472
          23.4111
          25.6758
          27.9425
          30.2125
          30.2127
          30.2127
          30.2128
          30.2771
          30.3462
          30.4201
          30.4201
          30.4201
          30.4201
          30.4275
          30.4397
          30.4567
          30.4567
          30.4567
          30.4567
          30.3913
          30.3307
          30.2749
          30.2749
          30.2748
          30.2747
          28.4407
          26.6093
          24.7792
          22.9492
          21.119
          21.1475
          23.4158
          25.6846
          27.9547
          30.2277
          30.2279
          30.2279
          30.228
          30.2921
          30.361
          30.4347
          30.4347
          30.4347
          30.4347
          30.4421
          30.4543
          30.4713
          30.4713
          30.4713
          30.4713
          30.4061
          30.3457
          30.29
          30.29
          30.2899
          30.2898
          28.4557
          26.6232
          24.7901
          22.9554
          21.1194
          21.1479
          23.4218
          25.6951
          27.9686
          30.244
          30.2442
          30.2442
          30.2443
          30.3082
          30.3769
          30.4504
          30.4504
          30.4504
          30.4504
          30.4578
          30.47
          30.487
          30.487
          30.487
          30.487
          30.422
          30.3617
          30.3062
          30.3061
          30.3061
          30.306
          28.474
          26.6417
          24.8055
          22.9644
          21.12
          21.1485
          23.4301
          25.7091
          27.9853
          30.2614
          30.2615
          30.2616
          30.2617
          30.3254
          30.3939
          30.4671
          30.4671
          30.4671
          30.4671
          30.4746
          30.4868
          30.5038
          30.5038
          30.5038
          30.5038
          30.4389
          30.3788
          30.3234
          30.3234
          30.3234
          30.3233
          28.4979
          26.6685
          24.8292
          22.9787
          21.121
          21.1491
          23.4435
          25.7301
          28.0073
          30.2799
          30.28
          30.2801
          30.2801
          30.3436
          30.4119
          30.4849
          30.4849
          30.4849
          30.4849
          30.4924
          30.5046
          30.5216
          30.5216
          30.5216
          30.5215
          30.4569
          30.397
          30.3418
          30.3418
          30.3417
          30.3416
          28.5316
          26.7106
          24.8681
          23.0029
          21.1223
          21.152
          23.4674
          25.7663
          28.0403
          30.2995
          30.2996
          30.2997
          30.2997
          30.363
          30.431
          30.5037
          30.5037
          30.5038
          30.5038
          30.5113
          30.5236
          30.5404
          30.5404
          30.5404
          30.5404
          30.4759
          30.4162
          30.3613
          30.3612
          30.3611
          30.361
          28.583
          26.781
          24.9362
          23.0453
          21.1264
          21.1495
          23.5183
          25.8354
          28.0973
          30.3201
          30.3203
          30.3204
          30.3205
          30.3835
          30.4511
          30.5236
          30.5236
          30.5237
          30.5237
          30.5315
          30.5437
          30.5604
          30.5603
          30.5603
          30.5603
          30.4961
          30.4367
          30.3818
          30.3818
          30.3817
          30.3815
          28.6664
          26.9045
          25.0585
          23.126
          21.1257
          21.1827
          23.6148
          25.9828
          28.2053
          30.3418
          30.342
          30.3422
          30.3424
          30.4051
          30.4724
          30.5443
          30.5445
          30.5447
          30.5449
          30.5533
          30.5655
          30.5814
          30.5814
          30.5812
          30.5811
          30.5175
          30.4584
          30.4036
          30.4035
          30.4032
          30.403
          28.807
          27.1246
          25.29
          23.2681
          21.1619
          21.0828
          23.8868
          26.2848
          28.4293
          30.3642
          30.3646
          30.3653
          30.3657
          30.4283
          30.4947
          30.5658
          30.5662
          30.567
          30.5674
          30.5777
          30.5897
          30.6038
          30.6035
          30.603
          30.6028
          30.5403
          30.4818
          30.4267
          30.4264
          30.4257
          30.4253
          29.0406
          27.525
          25.716
          23.6055
          21.0654
          21.6394
          24.2866
          27.0256
          28.8568
          30.3868
          30.3879
          30.3899
          30.391
          30.4539
          30.5185
          30.5871
          30.5884
          30.5909
          30.5923
          30.6069
          30.6187
          30.628
          30.6271
          30.6256
          30.6247
          30.5652
          30.5082
          30.4519
          30.4508
          30.4488
          30.4476
          29.4012
          28.206
          26.6263
          24.0913
          21.6299
          19.4498
          26.5016
          28.4281
          29.5424
          30.4078
          30.4104
          30.4175
          30.4201
          30.486
          30.544
          30.606
          30.6093
          30.6183
          30.6215
          30.6476
          30.6582
          30.6554
          30.6533
          30.6476
          30.6456
          30.5938
          30.5423
          30.481
          30.4783
          30.471
          30.4683
          29.8939
          29.2188
          28.2395
          26.4184
          19.4354
          30.3856
          30.3987
          30.4086
          30.418
          30.4236
          30.4294
          30.4434
          30.4712
          30.5321
          30.5746
          30.6114
          30.6288
          30.6467
          30.6714
          30.7111
          30.7185
          30.6965
          30.6804
          30.6691
          30.6584
          30.6313
          30.5923
          30.5322
          30.5041
          30.4897
          30.4833
          30.4764
          30.4662
          30.4561
          30.4459
          30.4327
          30.3908
          30.4
          30.4094
          30.4189
          30.4294
          30.443
          30.4634
          30.495
          30.5345
          30.5776
          30.6161
          30.649
          30.6765
          30.7019
          30.7209
          30.7283
          30.7227
          30.7094
          30.6925
          30.6688
          30.6365
          30.596
          30.5565
          30.5243
          30.5032
          30.4886
          30.4772
          30.4667
          30.4567
          30.4471
          30.4379
          30.3967
          30.4025
          30.4106
          30.4209
          30.4337
          30.4506
          30.4736
          30.5039
          30.541
          30.5834
          30.6313
          30.6755
          30.7087
          30.7333
          30.7497
          30.7564
          30.7535
          30.7418
          30.7221
          30.6928
          30.6508
          30.6051
          30.5662
          30.5348
          30.5108
          30.4929
          30.4789
          30.4674
          30.4576
          30.4495
          30.4437
          30.4009
          30.4036
          30.4113
          30.4217
          30.4353
          30.4531
          30.4766
          30.5067
          30.5433
          30.5865
          30.6403
          30.6912
          30.7262
          30.7511
          30.767
          30.7737
          30.7712
          30.7597
          30.7391
          30.7078
          30.6598
          30.6088
          30.5695
          30.5379
          30.5132
          30.4944
          30.4797
          30.4678
          30.458
          30.4506
          30.4479
        </DataArray>
      </PointData>
      <CellData>
      </CellData>
      <Points>
        <DataArray type="Float32" NumberOfComponents="3" format="ascii">
          0.039 0.00195 0.0
          0.0377 0.00195 0.0
          0.0364 0.00195 0.0
          0.0351 0.00195 0.0
          0.0338 0.00195 0.0
          0.0325 0.00195 0.0
          0.0312 0.00195 0.0
          0.0299 0.00195 0.0
          0.0286 0.00195 0.0
          0.0273 0.00195 0.0
          0.026 0.00195 0.0
          0.0247 0.00195 0.0
          0.0234 0.00195 0.0
          0.0221 0.00195 0.0
          0.0208 0.00195 0.0
          0.0195 0.00195 0.0
          0.0182 0.00195 0.0
          0.0169 0.00195 0.0
          0.0156 0.00195 0.0
          0.0143 0.00195 0.0
          0.013 0.00195 0.0
          0.0117 0.00195 0.0
          0.0104 0.00195 0.0
          0.0091 0.00195 0.0
          0.0078 0.00195 0.0
          0.0065 0.00195 0.0
          0.0052 0.00195 0.0
          0.0039 0.00195 0.0
          0.0026 0.00195 0.0
          0.0013 0.00195 0.0
          0 0.00195 0.0
          0.039 0.00065 0.0
          0.0377 0.00065 0.0
          0.0364 0.00065 0.0
          0.0351 0.00065 0.0
          0.0338 0.00065 0.0
          0.0325 0.00065 0.0
          0.0312 0.00065 0.0
          0.0299 0.00065 0.0
          0.0286 0.00065 0.0
          0.0273 0.00065 0.0
          0.026 0.00065 0.0
          0.0247 0.00065 0.0
          0.0234 0.00065 0.0
          0.0221 0.00065 0.0
          0.0208 0.00065 0.0
          0.0195 0.00065 0.0
          0.0182 0.00065 0.0
          0.0169 0.00065 0.0
          0.0156 0.00065 0.0
          0.0143 0.00065 0.0
          0.013 0.00065 0.0
          0.0117 0.00065 0.0
          0.0104 0.00065 0.0
          0.0091 0.00065 0.0
          0.0078 0.00065 0.0
          0.0065 0.00065 0.0
          0.0052 0.00065 0.0
          0.0039 0.00065 0.0
          0.0026 0.00065 0.0
          0.0013 0.00065 0.0
          0 0.00065 0.0
          0.039 -0.00065 0.0
          0.0377 -0.00065 0.0
          0.0364 -0.00065 0.0
          0.0351 -0.00065 0.0
          0.0338 -0.00065 0.0
          0.0325 -0.00065 0.0
          0.0312 -0.00065 0.0
          0.0299 -0.00065 0.0
          0.0286 -0.00065 0.0
          0.0273 -0.00065 0.0
          0.026 -0.00065 0.0
          0.0247 -0.00065 0.0
          0.0234 -0.00065 0.0
          0.0221 -0.00065 0.0
          0.0208 -0.00065 0.0
          0.0195 -0.00065 0.0
          0.0182 -0.00065 0.0
          0.0169 -0.00065 0.0
          0.0156 -0.00065 0.0
          0.0143 -0.00065 0.0
          0.013 -0.00065 0.0
          0.0117 -0.00065 0.0
          0.0104 -0.00065 0.0
          0.0091 -0.00065 0.0
          0.0078 -0.00065 0.0
          0.0065 -0.00065 0.0
          0.0052 -0.00065 0.0
          0.0039 -0.00065 0.0
          0.0026 -0.00065 0.0
          0.0013 -0.00065 0.0
          0 -0.00065 0.0
          0.039 -0.00195 0.0
          0.0377 -0.00195 0.0
          0.0364 -0.00195 0.0
          0.0351 -0.00195 0.0
          0.0338 -0.00195 0.0
          0.0325 -0.00195 0.0
          0.0312 -0.00195 0.0
          0.0299 -0.00195 0.0
          0.0286 -0.00195 0.0
          0.0273 -0.00195 0.0
          0.026 -0.00195 0.0
          0.0247 -0.00195 0.0
          0.0234 -0.00195 0.0
          0.0221 -0.00195 0.0
          0.0208 -0.00195 0.0
          0.0195 -0.00195 0.0
          0.0182 -0.00195 0.0
          0.0169 -0.00195 0.0
          0.0156 -0.00195 0.0
          0.0143 -0.00195 0.0
          0.013 -0.00195 0.0
          0.0117 -0.00195 0.0
          0.0104 -0.00195 0.0
          0.0091 -0.00195 0.0
          0.0078 -0.00195 0.0
          0.0065 -0.00195 0.0
          0.0052 -0.00195 0.0
          0.0039 -0.00195 0.0
          0.0026 -0.00195 0.0
          0.0013 -0.00195 0.0
          0 -0.00195 0.0
          0.039 -0.00325 0.0
          0.0377 -0.00325 0.0
          0.0364 -0.00325 0.0
          0.0351 -0.00325 0.0
          0.0338 -0.00325 0.0
          0.0325 -0.00325 0.0
          0.0312 -0.00325 0.0
          0.0299 -0.00325 0.0
          0.0286 -0.00325 0.0
          0.0273 -0.00325 0.0
          0.026 -0.00325 0.0
          0.0247 -0.00325 0.0
          0.0234 -0.00325 0.0
          0.0221 -0.00325 0.0
          0.0208 -0.00325 0.0
          0.0195 -0.00325 0.0
          0.0182 -0.00325 0.0
          0.0169 -0.00325 0.0
          0.0156 -0.00325 0.0
          0.0143 -0.00325 0.0
          0.013 -0.00325 0.0
          0.0117 -0.00325 0.0
          0.0104 -0.00325 0.0
          0.0091 -0.00325 0.0
          0.0078 -0.00325 0.0
          0.0065 -0.00325 0.0
          0.0052 -0.00325 0.0
          0.0039 -0.00325 0.0
          0.0026 -0.00325 0.0
          0.0013 -0.00325 0.0
          0 -0.00325 0.0
          0.039 -0.00455 0.0
          0.0377 -0.00455 0.0
          0.0364 -0.00455 0.0
          0.0351 -0.00455 0.0
          0.0338 -0.00455 0.0
          0.0325 -0.00455 0.0
          0.0312 -0.00455 0.0
          0.0299 -0.00455 0.0
          0.0286 -0.00455 0.0
          0.0273 -0.00455 0.0
          0.026 -0.00455 0.0
          0.0247 -0.00455 0.0
          0.0234 -0.00455 0.0
          0.0221 -0.00455 0.0
          0.0208 -0.00455 0.0
          0.0195 -0.00455 0.0
          0.0182 -0.00455 0.0
          0.0169 -0.00455 0.0
          0.0156 -0.00455 0.0
          0.0143 -0.00455 0.0
          0.013 -0.00455 0.0
          0.0117 -0.00455 0.0
          0.0104 -0.00455 0.0
          0.0091 -0.00455 0.0
          0.0078 -0.00455 0.0
          0.0065 -0.00455 0.0
          0.0052 -0.00455 0.0
          0.0039 -0.00455 0.0
          0.0026 -0.00455 0.0
          0.0013 -0.00455 0.0
          0 -0.00455 0.0
          0.039 -0.00585 0.0
          0.0377 -0.00585 0.0
          0.0364 -0.00585 0.0
          0.0351 -0.00585 0.0
          0.0338 -0.00585 0.0
          0.0325 -0.00585 0.0
          0.0312 -0.00585 0.0
          0.0299 -0.00585 0.0
          0.0286 -0.00585 0.0
          0.0273 -0.00585 0.0
          0.026 -0.00585 0.0
          0.0247 -0.00585 0.0
          0.0234 -0.00585 0.0
          0.0221 -0.00585 0.0
          0.0208 -0.00585 0.0
          0.0195 -0.00585 0.0
          0.0182 -0.00585 0.0
          0.0169 -0.00585 0.0
          0.0156 -0.00585 0.0
          0.0143 -0.00585 0.0
          0.013 -0.00585 0.0
          0.0117 -0.00585 0.0
          0.0104 -0.00585 0.0
          0.0091 -0.00585 0.0
          0.0078 -0.00585 0.0
          0.0065 -0.00585 0.0
          0.0052 -0.00585 0.0
          0.0039 -0.00585 0.0
          0.0026 -0.00585 0.0
          0.0013 -0.00585 0.0
          0 -0.00585 0.0
          0.039 -0.00715 0.0
          0.0377 -0.00715 0.0
          0.0364 -0.00715 0.0
          0.0351 -0.00715 0.0
          0.0338 -0.00715 0.0
          0.0325 -0.00715 0.0
          0.0312 -0.00715 0.0
          0.0299 -0.00715 0.0
          0.0286 -0.00715 0.0
          0.0273 -0.00715 0.0
          0.026 -0.00715 0.0
          0.0247 -0.00715 0.0
          0.0234 -0.00715 0.0
          0.0221 -0.00715 0.0
          0.0208 -0.00715 0.0
          0.0195 -0.00715 0.0
          0.0182 -0.00715 0.0
          0.0169 -0.00715 0.0
          0.0156 -0.00715 0.0
          0.0143 -0.00715 0.0
          0.013 -0.00715 0.0
          0.0117 -0.00715 0.0
          0.0104 -0.00715 0.0
          0.0091 -0.00715 0.0
          0.0078 -0.00715 0.0
          0.0065 -0.00715 0.0
          0.0052 -0.00715 0.0
          0.0039 -0.00715 0.0
          0.0026 -0.00715 0.0
          0.0013 -0.00715 0.0
          0 -0.00715 0.0
          0.039 -0.00845 0.0
          0.0377 -0.00845 0.0
          0.0364 -0.00845 0.0
          0.0351 -0.00845 0.0
          0.0338 -0.00845 0.0
          0.0325 -0.00845 0.0
          0.0312 -0.00845 0.0
          0.0299 -0.00845 0.0
          0.0286 -0.00845 0.0
          0.0273 -0.00845 0.0
          0.026 -0.00845 0.0
          0.0247 -0.00845 0.0
          0.0234 -0.00845 0.0
          0.0221 -0.00845 0.0
          0.0208 -0.00845 0.0
          0.0195 -0.00845 0.0
          0.0182 -0.00845 0.0
          0.0169 -0.00845 0.0
          0.0156 -0.00845 0.0
          0.0143 -0.00845 0.0
          0.013 -0.00845 0.0
          0.0117 -0.00845 0.0
          0.0104 -0.00845 0.0
          0.0091 -0.00845 0.0
          0.0078 -0.00845 0.0
          0.0065 -0.00845 0.0
          0.0052 -0.00845 0.0
          0.0039 -0.00845 0.0
          0.0026 -0.00845 0.0
          0.0013 -0.00845 0.0
          0 -0.00845 0.0
          0.039 -0.00975 0.0
          0.0377 -0.00975 0.0
          0.0364 -0.00975 0.0
          0.0351 -0.00975 0.0
          0.0338 -0.00975 0.0
          0.0325 -0.00975 0.0
          0.0312 -0.00975 0.0
          0.0299 -0.00975 0.0
          0.0286 -0.00975 0.0
          0.0273 -0.00975 0.0
          0.026 -0.00975 0.0
          0.0247 -0.00975 0.0
          0.0234 -0.00975 0.0
          0.0221 -0.00975 0.0
          0.0208 -0.00975 0.0
          0.0195 -0.00975 0.0
          0.0182 -0.00975 0.0
          0.0169 -0.00975 0.0
          0.0156 -0.00975 0.0
          0.0143 -0.00975 0.0
          0.013 -0.00975 0.0
          0.0117 -0.00975 0.0
          0.0104 -0.00975 0.0
          0.0091 -0.00975 0.0
          0.0078 -0.00975 0.0
          0.0065 -0.00975 0.0
          0.0052 -0.00975 0.0
          0.0039 -0.00975 0.0
          0.0026 -0.00975 0.0
          0.0013 -0.00975 0.0
          0 -0.00975 0.0
          0.039 -0.01105 0.0
          0.0377 -0.01105 0.0
          0.0364 -0.01105 0.0
          0.0351 -0.01105 0.0
          0.0338 -0.01105 0.0
          0.0325 -0.01105 0.0
          0.0312 -0.01105 0.0
          0.0299 -0.01105 0.0
          0.0286 -0.01105 0.0
          0.0273 -0.01105 0.0
          0.026 -0.01105 0.0
          0.0247 -0.01105 0.0
          0.0234 -0.01105 0.0
          0.0221 -0.01105 0.0
          0.0208 -0.01105 0.0
          0.0195 -0.01105 0.0
          0.0182 -0.01105 0.0
          0.0169 -0.01105 0.0
          0.0156 -0.01105 0.0
          0.0143 -0.01105 0.0
          0.013 -0.01105 0.0
          0.0117 -0.01105 0.0
          0.0104 -0.01105 0.0
          0.0091 -0.01105 0.0
          0.0078 -0.01105 0.0
          0.0065 -0.01105 0.0
          0.0052 -0.01105 0.0
          0.0039 -0.01105 0.0
          0.0026 -0.01105 0.0
          0.0013 -0.01105 0.0
          0 -0.01105 0.0
          0.039 -0.01235 0.0
          0.0377 -0.01235 0.0
          0.0364 -0.01235 0.0
          0.0351 -0.01235 0.0
          0.0338 -0.01235 0.0
          0.0325 -0.01235 0.0
          0.0312 -0.01235 0.0
          0.0299 -0.01235 0.0
          0.0286 -0.01235 0.0
          0.0273 -0.01235 0.0
          0.026 -0.01235 0.0
          0.0247 -0.01235 0.0
          0.0234 -0.01235 0.0
          0.0221 -0.01235 0.0
          0.0208 -0.01235 0.0
          0.0195 -0.01235 0.0
          0.0182 -0.01235 0.0
          0.0169 -0.01235 0.0
          0.0156 -0.01235 0.0
          0.0143 -0.01235 0.0
          0.013 -0.01235 0.0
          0.0117 -0.01235 0.0
          0.0104 -0.01235 0.0
          0.0091 -0.01235 0.0
          0.0078 -0.01235 0.0
          0.0065 -0.01235 0.0
          0.0052 -0.01235 0.0
          0.0039 -0.01235 0.0
          0.0026 -0.01235 0.0
          0.0013 -0.01235 0.0
          0 -0.01235 0.0
          0.039 -0.01365 0.0
          0.0377 -0.01365 0.0
          0.0364 -0.01365 0.0
          0.0351 -0.01365 0.0
          0.0338 -0.01365 0.0
          0.0325 -0.01365 0.0
          0.0312 -0.01365 0.0
          0.0299 -0.01365 0.0
          0.0286 -0.01365 0.0
          0.0273 -0.01365 0.0
          0.026 -0.01365 0.0
          0.0247 -0.01365 0.0
          0.0234 -0.01365 0.0
          0.0221 -0.01365 0.0
          0.0208 -0.01365 0.0
          0.0195 -0.01365 0.0
          0.0182 -0.01365 0.0
          0.0169 -0.01365 0.0
          0.0156 -0.01365 0.0
          0.0143 -0.01365 0.0
          0.013 -0.01365 0.0
          0.0117 -0.01365 0.0
          0.0104 -0.01365 0.0
          0.0091 -0.01365 0.0
          0.0078 -0.01365 0.0
          0.0065 -0.01365 0.0
          0.0052 -0.01365 0.0
          0.0039 -0.01365 0.0
          0.0026 -0.01365 0.0
          0.0013 -0.01365 0.0
          0 -0.01365 0.0
          0.039 -0.01495 0.0
          0.0377 -0.01495 0.0
          0.0364 -0.01495 0.0
          0.0351 -0.01495 0.0
          0.0338 -0.01495 0.0
          0.0325 -0.01495 0.0
          0.0312 -0.01495 0.0
          0.0299 -0.01495 0.0
          0.0286 -0.01495 0.0
          0.0273 -0.01495 0.0
          0.026 -0.01495 0.0
          0.0247 -0.01495 0.0
          0.0234 -0.01495 0.0
          0.0221 -0.01495 0.0
          0.0208 -0.01495 0.0