<?xml version="1.0"?>
<VTKFile type="UnstructuredGrid" version="0.1" byte_order="LittleEndian">
  <UnstructuredGrid>
    <Piece NumberOfPoints="961" NumberOfCells="900">
      <PointData Scalars="Temperature">
        <DataArray type="Float32" Name="Temperature" format="ascii">
          21.003
          21.0513
          21.1013
          21.151
          21.1928
          21.2204
          21.2314
          21.2314
          21.2288
          21.2302
          21.2358
          21.2411
          21.2414
          21.2369
          21.2324
          21.2326
          21.2373
          21.242
          21.2418
          21.2367
          21.2312
          21.23
          21.2328
          21.2333
          21.2237
          21.1987
          21.1613
          21.1178
          21.0758
          21.0375
          21.0023
          21.0498
          21.8258
          22.6575
          23.491
          24.2125
          24.6647
          24.8291
          24.7932
          24.7277
          24.7497
          24.863
          24.9696
          24.9741
          24.8791
          24.7841
          24.7868
          24.8867
          24.9849
          24.982
          24.8766
          24.7651
          24.7458
          24.8156
          24.8593
          24.7146
          24.3043
          23.6549
          22.9229
          22.2209
          21.6056
          21.0365
          21.0926
          22.5397
          24.1126
          25.9898
          27.5138
          28.4813
          28.6415
          28.3746
          28.0863
          28.1325
          28.4989
          28.8517
          28.8562
          28.5227
          28.1904
          28.1972
          28.5395
          28.879
          28.8762
          28.5246
          28.1609
          28.1205
          28.4159
          28.6923
          28.5514
          27.6594
          26.2747
          24.6041
          23.2766
          22.1286
          21.068
          21.1281
          23.1293
          25.3239
          27.9484
          32.6661
          32.6666
          32.6667
          32.6665
          30.5969
          30.6598
          32.8876
          32.8879
          32.8879
          32.8876
          30.7328
          30.7429
          32.9244
          32.9247
          32.9247
          32.9244
          30.6977
          30.6426
          32.7307
          32.731
          32.7309
          32.7304
          28.324
          26.0052
          24.1584
          22.57
          21.0947
          21.1539
          23.5531
          26.134
          29.1902
          32.6673
          32.6675
          32.6676
          32.6676
          32.0639
          32.1376
          32.8887
          32.8887
          32.8887
          32.8887
          32.2174
          32.2297
          32.9255
          32.9255
          32.9255
          32.9255
          32.1808
          32.1162
          32.7318
          32.7318
          32.7317
          32.7316
          29.631
          26.9666
          24.8135
          22.9074
          21.1152
          21.1702
          23.8103
          26.5789
          29.5452
          32.6694
          32.6696
          32.6697
          32.6697
          32.5276
          32.6013
          32.8907
          32.8907
          32.8907
          32.8907
          32.6853
          32.6976
          32.9275
          32.9275
          32.9275
          32.9275
          32.6464
          32.5819
          32.7339
          32.7339
          32.7338
          32.7337
          30.043
          27.5259
          25.2405
          23.1397
          21.1297
          21.179
          23.9445
          26.7724
          29.6894
          32.6726
          32.6727
          32.6728
          32.6728
          32.6756
          32.7492
          32.8937
          32.8937
          32.8937
          32.8937
          32.8345
          32.8468
          32.9305
          32.9305
          32.9305
          32.9305
          32.7949
          32.7304
          32.7371
          32.737
          32.737
          32.7368
          30.2295
          27.8018
          25.4908
          23.2845
          21.1388
          21.1833
          24.0069
          26.8596
          29.7529
          32.6768
          32.677
          32.6771
          32.6771
          32.7253
          32.7988
          32.8977
          32.8977
          32.8977
          32.8977
          32.8844
          32.8967
          32.9345
          32.9345
          32.9345
          32.9345
          32.8446
          32.7802
          32.7413
          32.7412
          32.7412
          32.741
          30.3224
          27.9445
          25.6275
          23.3683
          21.1442
          21.1852
          24.0358
          26.8999
          29.7834
          32.6821
          32.6823
          32.6824
          32.6824
          32.7447
          32.8182
          32.9028
          32.9028
          32.9028
          32.9028
          32.9038
          32.9161
          32.9396
          32.9396
          32.9396
          32.9396
          32.8641
          32.7997
          32.7465
          32.7465
          32.7464
          32.7463
          30.3722
          28.0205
          25.7017
          23.4146
          21.1472
          21.1862
          24.0497
          26.9198
          29.7998
          32.6885
          32.6887
          32.6888
          32.6888
          32.7555
          32.8288
          32.9088
          32.9088
          32.9088
          32.9088
          32.9144
          32.9267
          32.9456
          32.9456
          32.9456
          32.9456
          32.8747
          32.8105
          32.7529
          32.7529
          32.7528
          32.7526
          30.4008
          28.0624
          25.7425
          23.4402
          21.1489
          21.1867
          24.057
          26.931
          29.8106
          32.696
          32.6961
          32.6962
          32.6962
          32.7642
          32.8374
          32.9159
          32.9159
          32.9159
          32.9159
          32.9229
          32.9352
          32.9527
          32.9527
          32.9527
          32.9527
          32.8833
          32.8192
          32.7603
          32.7602
          32.7602
          32.76
          30.4191
          28.0869
          25.7657
          23.4547
          21.1498
          21.187
          24.0616
          26.9386
          29.8193
          32.7045
          32.7047
          32.7047
          32.7048
          32.7731
          32.8461
          32.924
          32.924
          32.924
          32.924
          32.9314
          32.9437
          32.9608
          32.9608
          32.9608
          32.9608
          32.892
          32.828
          32.7687
          32.7687
          32.7686
          32.7685
          30.4324
          28.1027
          25.7799
          23.4633
          21.1504
          21.1872
          24.0652
          26.9449
          29.8276
          32.7141
          32.7143
          32.7143
          32.7144
          32.7826
          32.8555
          32.9331
          32.9331
          32.9331
          32.9331
          32.9407
          32.953
          32.9699
          32.9699
          32.9699
          32.9699
          32.9014
          32.8375
          32.7783
          32.7782
          32.7781
          32.778
          30.4436
          28.1142
          25.7896
          23.469
          21.1508
          21.1874
          24.0685
          26.9511
          29.8361
          32.7248
          32.7249
          32.725
          32.7251
          32.7932
          32.8659
          32.9432
          32.9432
          32.9432
          32.9432
          32.9509
          32.9632
          32.9801
          32.9801
          32.9801
          32.9801
          32.9117
          32.848
          32.7888
          32.7888
          32.7887
          32.7886
          30.4542
          28.1239
          25.7973
          23.4734
          21.151
          21.1876
          24.0719
          26.9574
          29.8452
          32.7365
          32.7367
          32.7368
          32.7368
          32.8047
          32.8773
          32.9544
          32.9544
          32.9544
          32.9544
          32.962
          32.9743
          32.9912
          32.9912
          32.9912
          32.9912
          32.923
          32.8595
          32.8005
          32.8004
          32.8004
          32.8002
          30.465
          28.1334
          25.8045
          23.4774
          21.1513
          21.1878
          24.0755
          26.9643
          29.8552
          32.7493
          32.7495
          32.7496
          32.7496
          32.8173
          32.8896
          32.9665
          32.9665
          32.9665
          32.9665
          32.9742
          32.9865
          33.0034
          33.0034
          33.0034
          33.0034
          32.9354
          32.872
          32.8132
          32.8131
          32.8131
          32.8129
          30.4766
          28.1434
          25.8121
          23.4816
          21.1516
          21.1881
          24.0796
          26.972
          29.8661
          32.7632
          32.7634
          32.7635
          32.7635
          32.831
          32.9031
          32.9797
          32.9797
          32.9797
          32.9797
          32.9874
          32.9997
          33.0166
          33.0166
          33.0166
          33.0166
          32.9488
          32.8856
          32.8269
          32.8269
          32.8268
          32.8267
          30.4898
          28.1552
          25.8212
          23.4868
          21.1519
          21.1884
          24.0845
          26.9809
          29.8783
          32.7782
          32.7783
          32.7784
          32.7785
          32.8457
          32.9175
          32.9939
          32.9939
          32.9939
          32.9939
          33.0016
          33.0139
          33.0308
          33.0308
          33.0308
          33.0308
          32.9632
          32.9002
          32.8418
          32.8417
          32.8417
          32.8415
          30.5054
          28.1702
          25.8333
          23.4938
          21.1523
          21.1888
          24.0908
          26.9919
          29.8924
          32.7942
          32.7944
          32.7945
          32.7945
          32.8615
          32.933
          33.0091
          33.0091
          33.0091
          33.0091
          33.0168
          33.0291
          33.046
          33.046
          33.046
          33.046
          32.9786
          32.9158
          32.8576
          32.8576
          32.8575
          32.8574
          30.5249
          28.1908
          25.8509
          23.5043
          21.153
          21.1895
          24.1001
          27.0072
          29.9098
          32.8113
          32.8115
          32.8116
          32.8116
          32.8783
          32.9495
          33.0254
          33.0254
          33.0254
          33.0254
          33.0331
          33.0454
          33.0623
          33.0623
          33.0623
          33.0622
          32.9951
          32.9326
          32.8746
          32.8746
          32.8745
          32.8744
          30.5513
          28.2218
          25.879
          23.5213
          21.1542
          21.1901
          24.1158
          27.0311
          29.9338
          32.8295
          32.8296
          32.8297
          32.8298
          32.8961
          32.9671
          33.0426
          33.0426
          33.0426
          33.0426
          33.0504
          33.0626
          33.0795
          33.0795
          33.0795
          33.0795
          33.0126
          32.9503
          32.8926
          32.8926
          32.8925
          32.8924
          30.5898
          28.2721
          25.9263
          23.551
          21.1557
          21.1938
          24.1447
          27.0743
          29.9715
          32.8487
          32.8489
          32.849
          32.849
          32.9151
          32.9857
          33.0608
          33.0609
          33.0609
          33.0609
          33.0687
          33.081
          33.0978
          33.0978
          33.0978
          33.0978
          33.0312
          32.9692
          32.9117
          32.9116
          32.9115
          32.9114
          30.6506
          28.3581
          26.0104
          23.6036
          21.1609
          21.1904
          24.2078
          27.1591
          30.0394
          32.869
          32.8692
          32.8693
          32.8694
          32.9351
          33.0053
          33.0801
          33.0801
          33.0802
          33.0802
          33.0883
          33.1006
          33.1171
          33.1171
          33.117
          33.117
          33.0508
          32.9891
          32.9318
          32.9318
          32.9316
          32.9315
          30.7517
          28.5112
          26.1632
          23.7048
          21.1599
          21.2326
          24.3287
          27.3432
          30.1719
          32.8902
          32.8905
          32.8908
          32.8909
          32.9563
          33.026
          33.1002
          33.1003
          33.1006
          33.1007
          33.1094
          33.1217
          33.1375
          33.1375
          33.1373
          33.1372
          33.0716
          33.0103
          32.9531
          32.953
          32.9527
          32.9525
          30.9251
          28.7868
          26.4545
          23.8838
          21.2058
          21.1056
          24.6726
          27.7235
          30.4516
          32.9123
          32.9127
          32.9135
          32.9138
          32.9789
          33.0477
          33.1209
          33.1213
          33.1222
          33.1226
          33.1331
          33.1452
          33.1592
          33.159
          33.1584
          33.1582
          33.0937
          33.0332
          32.9758
          32.9755
          32.9747
          32.9743
          31.2163
          29.2909
          26.9923
          24.3105
          21.0833
          21.8124
          25.1786
          28.6611
          30.9896
          32.9343
          32.9355
          32.9377
          32.9388
          33.004
          33.0709
          33.1414
          33.1428
          33.1453
          33.1467
          33.1617
          33.1735
          33.1827
          33.1818
          33.1802
          33.1793
          33.1181
          33.059
          33.0006
          32.9994
          32.9973
          32.9961
          31.6685
          30.1507
          28.1443
          24.9253
          21.7994
          19.0313
          27.9899
          30.4384
          31.8551
          32.9546
          32.9574
          32.9649
          32.9676
          33.0357
          33.0956
          33.1595
          33.1629
          33.172
          33.1753
          33.2016
          33.2122
          33.2094
          33.2073
          33.2015
          33.1994
          33.1458
          33.0926
          33.0293
          33.0265
          33.0188
          33.016
          32.2879
          31.4309
          30.1876
          27.876
          19.0153
          32.9204
          32.9368
          32.9491
          32.9606
          32.9687
          32.9758
          32.9905
          33.0191
          33.0813
          33.125
          33.1635
          33.1815
          33.1998
          33.2245
          33.2641
          33.2715
          33.2497
          33.2337
          33.2222
          33.2108
          33.1821
          33.1421
          33.0808
          33.0521
          33.0369
          33.0293
          33.0199
          33.0077
          32.9956
          32.983
          32.9664
          32.927
          32.9385
          32.95
          32.9615
          32.9737
          32.9888
          33.0104
          33.0431
          33.0837
          33.128
          33.1675
          33.2012
          33.2291
          33.2547
          33.2739
          33.2813
          33.2757
          33.2623
          33.2449
          33.2206
          33.1874
          33.1457
          33.1052
          33.072
          33.0498
          33.0338
          33.0206
          33.0082
          32.9963
          32.9846
          32.973
          32.9344
          32.9416
          32.9514
          32.9634
          32.9778
          32.9962
          33.0205
          33.0519
          33.0902
          33.1337
          33.1825
          33.2274
          33.261
          33.286
          33.3025
          33.3093
          33.3063
          33.2944
          33.2742
          33.2443
          33.2015
          33.1549
          33.1149
          33.0824
          33.0571
          33.0378
          33.0222
          33.009
          32.9974
          32.9876
          32.9804
          32.9398
          32.9429
          32.9521
          32.9642
          32.9793
          32.9986
          33.0235
          33.0548
          33.0925
          33.1367
          33.1914
          33.243
          33.2785
          33.3037
          33.3198
          33.3266
          33.3239
          33.3122
          33.2912
          33.2593
          33.2105
          33.1585
          33.1182
          33.0854
          33.0595
          33.0392
          33.0229
          33.0094
          32.9979
          32.9889
          32.9858
        </DataArray>
      </PointData>
      <CellData>
      </CellData>
      <Points>
        <DataArray type="Float32" NumberOfComponents="3" format="ascii">
          0.039 0.00195 0.0
          0.0377 0.00195 0.0
          0.0364 0.00195 0.0
          0.0351 0.00195 0.0
          0.0338 0.00195 0.0
          0.0325 0.00195 0.0
          0.0312 0.00195 0.0
          0.0299 0.00195 0.0
          0.0286 0.00195 0.0
          0.0273 0.00195 0.0
          0.026 0.00195 0.0
          0.0247 0.00195 0.0
          0.0234 0.00195 0.0
          0.0221 0.00195 0.0
          0.0208 0.00195 0.0
          0.0195 0.00195 0.0
          0.0182 0.00195 0.0
          0.0169 0.00195 0.0
          0.0156 0.00195 0.0
          0.0143 0.00195 0.0
          0.013 0.00195 0.0
          0.0117 0.00195 0.0
          0.0104 0.00195 0.0
          0.0091 0.00195 0.0
          0.0078 0.00195 0.0
          0.0065 0.00195 0.0
          0.0052 0.00195 0.0
          0.0039 0.00195 0.0
          0.0026 0.00195 0.0
          0.0013 0.00195 0.0
          0 0.00195 0.0
          0.039 0.00065 0.0
          0.0377 0.00065 0.0
          0.0364 0.00065 0.0
          0.0351 0.00065 0.0
          0.0338 0.00065 0.0
          0.0325 0.00065 0.0
          0.0312 0.00065 0.0
          0.0299 0.00065 0.0
          0.0286 0.00065 0.0
          0.0273 0.00065 0.0
          0.026 0.00065 0.0
          0.0247 0.00065 0.0
          0.0234 0.00065 0.0
          0.0221 0.00065 0.0
          0.0208 0.00065 0.0
          0.0195 0.00065 0.0
          0.0182 0.00065 0.0
          0.0169 0.00065 0.0
          0.0156 0.00065 0.0
          0.0143 0.00065 0.0
          0.013 0.00065 0.0
          0.0117 0.00065 0.0
          0.0104 0.00065 0.0
          0.0091 0.00065 0.0
          0.0078 0.00065 0.0
          0.0065 0.00065 0.0
          0.0052 0.00065 0.0
          0.0039 0.00065 0.0
          0.0026 0.00065 0.0
          0.0013 0.00065 0.0
          0 0.00065 0.0
          0.039 -0.00065 0.0
          0.0377 -0.00065 0.0
          0.0364 -0.00065 0.0
          0.0351 -0.00065 0.0
          0.0338 -0.00065 0.0
          0.0325 -0.00065 0.0
          0.0312 -0.00065 0.0
          0.0299 -0.00065 0.0
          0.0286 -0.00065 0.0
          0.0273 -0.00065 0.0
          0.026 -0.00065 0.0
          0.0247 -0.00065 0.0
          0.0234 -0.00065 0.0
          0.0221 -0.00065 0.0
          0.0208 -0.00065 0.0
          0.0195 -0.00065 0.0
          0.0182 -0.00065 0.0
          0.0169 -0.00065 0.0
          0.0156 -0.00065 0.0
          0.0143 -0.00065 0.0
          0.013 -0.00065 0.0
          0.0117 -0.00065 0.0
          0.0104 -0.00065 0.0
          0.0091 -0.00065 0.0
          0.0078 -0.00065 0.0
          0.0065 -0.00065 0.0
          0.0052 -0.00065 0.0
          0.0039 -0.00065 0.0
          0.0026 -0.00065 0.0
          0.0013 -0.00065 0.0
          0 -0.00065 0.0
          0.039 -0.00195 0.0
          0.0377 -0.00195 0.0
          0.0364 -0.00195 0.0
          0.0351 -0.00195 0.0
          0.0338 -0.00195 0.0
          0.0325 -0.00195 0.0
          0.0312 -0.00195 0.0
          0.0299 -0.00195 0.0
          0.0286 -0.00195 0.0
          0.0273 -0.00195 0.0
          0.026 -0.00195 0.0
          0.0247 -0.00195 0.0
          0.0234 -0.00195 0.0
          0.0221 -0.00195 0.0
          0.0208 -0.00195 0.0
          0.0195 -0.00195 0.0
          0.0182 -0.00195 0.0
          0.0169 -0.00195 0.0
          0.0156 -0.00195 0.0
          0.0143 -0.00195 0.0
          0.013 -0.00195 0.0
          0.0117 -0.00195 0.0
          0.0104 -0.00195 0.0
          0.0091 -0.00195 0.0
          0.0078 -0.00195 0.0
          0.0065 -0.00195 0.0
          0.0052 -0.00195 0.0
          0.0039 -0.00195 0.0
          0.0026 -0.00195 0.0
          0.0013 -0.00195 0.0
          0 -0.00195 0.0
          0.039 -0.00325 0.0
          0.0377 -0.00325 0.0
          0.0364 -0.00325 0.0
          0.0351 -0.00325 0.0
          0.0338 -0.00325 0.0
          0.0325 -0.00325 0.0
          0.0312 -0.00325 0.0
          0.0299 -0.00325 0.0
          0.0286 -0.00325 0.0
          0.0273 -0.00325 0.0
          0.026 -0.00325 0.0
          0.0247 -0.00325 0.0
          0.0234 -0.00325 0.0
          0.0221 -0.00325 0.0
          0.0208 -0.00325 0.0
          0.0195 -0.00325 0.0
          0.0182 -0.00325 0.0
          0.0169 -0.00325 0.0
          0.0156 -0.00325 0.0
          0.0143 -0.00325 0.0
          0.013 -0.00325 0.0
          0.0117 -0.00325 0.0
          0.0104 -0.00325 0.0
          0.0091 -0.00325 0.0
          0.0078 -0.00325 0.0
          0.0065 -0.00325 0.0
          0.0052 -0.00325 0.0
          0.0039 -0.00325 0.0
          0.0026 -0.00325 0.0
          0.0013 -0.00325 0.0
          0 -0.00325 0.0
          0.039 -0.00455 0.0
          0.0377 -0.00455 0.0
          0.0364 -0.00455 0.0
          0.0351 -0.00455 0.0
          0.0338 -0.00455 0.0
          0.0325 -0.00455 0.0
          0.0312 -0.00455 0.0
          0.0299 -0.00455 0.0
          0.0286 -0.00455 0.0
          0.0273 -0.00455 0.0
          0.026 -0.00455 0.0
          0.0247 -0.00455 0.0
          0.0234 -0.00455 0.0
          0.0221 -0.00455 0.0
          0.0208 -0.00455 0.0
          0.0195 -0.00455 0.0
          0.0182 -0.00455 0.0
          0.0169 -0.00455 0.0
          0.0156 -0.00455 0.0
          0.0143 -0.00455 0.0
          0.013 -0.00455 0.0
          0.0117 -0.00455 0.0
          0.0104 -0.00455 0.0
          0.0091 -0.00455 0.0
          0.0078 -0.00455 0.0
          0.0065 -0.00455 0.0
          0.0052 -0.00455 0.0
          0.0039 -0.00455 0.0
          0.0026 -0.00455 0.0
          0.0013 -0.00455 0.0
          0 -0.00455 0.0
          0.039 -0.00585 0.0
          0.0377 -0.00585 0.0
          0.0364 -0.00585 0.0
          0.0351 -0.00585 0.0
          0.0338 -0.00585 0.0
          0.0325 -0.00585 0.0
          0.0312 -0.00585 0.0
          0.0299 -0.00585 0.0
          0.0286 -0.00585 0.0
          0.0273 -0.00585 0.0
          0.026 -0.00585 0.0
          0.0247 -0.00585 0.0
          0.0234 -0.00585 0.0
          0.0221 -0.00585 0.0
          0.0208 -0.00585 0.0
          0.0195 -0.00585 0.0
          0.0182 -0.00585 0.0
          0.0169 -0.00585 0.0
          0.0156 -0.00585 0.0
          0.0143 -0.00585 0.0
          0.013 -0.00585 0.0
          0.0117 -0.00585 0.0
          0.0104 -0.00585 0.0
          0.0091 -0.00585 0.0
          0.0078 -0.00585 0.0
          0.0065 -0.00585 0.0
          0.0052 -0.00585 0.0
          0.0039 -0.00585 0.0
          0.0026 -0.00585 0.0
          0.0013 -0.00585 0.0
          0 -0.00585 0.0
          0.039 -0.00715 0.0
          0.0377 -0.00715 0.0
          0.0364 -0.00715 0.0
          0.0351 -0.00715 0.0
          0.0338 -0.00715 0.0
          0.0325 -0.00715 0.0
          0.0312 -0.00715 0.0
          0.0299 -0.00715 0.0
          0.0286 -0.00715 0.0
          0.0273 -0.00715 0.0
          0.026 -0.00715 0.0
          0.0247 -0.00715 0.0
          0.0234 -0.00715 0.0
          0.0221 -0.00715 0.0
          0.0208 -0.00715 0.0
          0.0195 -0.00715 0.0
          0.0182 -0.00715 0.0
          0.0169 -0.00715 0.0
          0.0156 -0.00715 0.0
          0.0143 -0.00715 0.0
          0.013 -0.00715 0.0
          0.0117 -0.00715 0.0
          0.0104 -0.00715 0.0
          0.0091 -0.00715 0.0
          0.0078 -0.00715 0.0
          0.0065 -0.00715 0.0
          0.0052 -0.00715 0.0
          0.0039 -0.00715 0.0
          0.0026 -0.00715 0.0
          0.0013 -0.00715 0.0
          0 -0.00715 0.0
          0.039 -0.00845 0.0
          0.0377 -0.00845 0.0
          0.0364 -0.00845 0.0
          0.0351 -0.00845 0.0
          0.0338 -0.00845 0.0
          0.0325 -0.00845 0.0
          0.0312 -0.00845 0.0
          0.0299 -0.00845 0.0
          0.0286 -0.00845 0.0
          0.0273 -0.00845 0.0
          0.026 -0.00845 0.0
          0.0247 -0.00845 0.0
          0.0234 -0.00845 0.0
          0.0221 -0.00845 0.0
          0.0208 -0.00845 0.0
          0.0195 -0.00845 0.0
          0.0182 -0.00845 0.0
          0.0169 -0.00845 0.0
          0.0156 -0.00845 0.0
          0.0143 -0.00845 0.0
          0.013 -0.00845 0.0
          0.0117 -0.00845 0.0
          0.0104 -0.00845 0.0
          0.0091 -0.00845 0.0
          0.0078 -0.00845 0.0
          0.0065 -0.00845 0.0
          0.0052 -0.00845 0.0
          0.0039 -0.00845 0.0
          0.0026 -0.00845 0.0
          0.0013 -0.00845 0.0
          0 -0.00845 0.0
          0.039 -0.00975 0.0
          0.0377 -0.00975 0.0
          0.0364 -0.00975 0.0
          0.0351 -0.00975 0.0
          0.0338 -0.00975 0.0
          0.0325 -0.00975 0.0
          0.0312 -0.00975 0.0
          0.0299 -0.00975 0.0
          0.0286 -0.00975 0.0
          0.0273 -0.00975 0.0
          0.026 -0.00975 0.0
          0.0247 -0.00975 0.0
          0.0234 -0.00975 0.0
          0.0221 -0.00975 0.0
          0.0208 -0.00975 0.0
          0.0195 -0.00975 0.0
          0.0182 -0.00975 0.0
          0.0169 -0.00975 0.0
          0.0156 -0.00975 0.0
          0.0143 -0.00975 0.0
          0.013 -0.00975 0.0
          0.0117 -0.00975 0.0
          0.0104 -0.00975 0.0
          0.0091 -0.00975 0.0
          0.0078 -0.00975 0.0
          0.0065 -0.00975 0.0
          0.0052 -0.00975 0.0
          0.0039 -0.00975 0.0
          0.0026 -0.00975 0.0
          0.0013 -0.00975 0.0
          0 -0.00975 0.0
          0.039 -0.01105 0.0
          0.0377 -0.01105 0.0
          0.0364 -0.01105 0.0
          0.0351 -0.01105 0.0
          0.0338 -0.01105 0.0
          0.0325 -0.01105 0.0
          0.0312 -0.01105 0.0
          0.0299 -0.01105 0.0
          0.0286 -0.01105 0.0
          0.0273 -0.01105 0.0
          0.026 -0.01105 0.0
          0.0247 -0.01105 0.0
          0.0234 -0.01105 0.0
          0.0221 -0.01105 0.0
          0.0208 -0.01105 0.0
          0.0195 -0.01105 0.0
          0.0182 -0.01105 0.0
          0.0169 -0.01105 0.0
          0.0156 -0.01105 0.0
          0.0143 -0.01105 0.0
          0.013 -0.01105 0.0
          0.0117 -0.01105 0.0
          0.0104 -0.01105 0.0
          0.0091 -0.01105 0.0
          0.0078 -0.01105 0.0
          0.0065 -0.01105 0.0
          0.0052 -0.01105 0.0
          0.0039 -0.01105 0.0
          0.0026 -0.01105 0.0
          0.0013 -0.01105 0.0
          0 -0.01105 0.0
          0.039 -0.01235 0.0
          0.0377 -0.01235 0.0
          0.0364 -0.01235 0.0
          0.0351 -0.01235 0.0
          0.0338 -0.01235 0.0
          0.0325 -0.01235 0.0
          0.0312 -0.01235 0.0
          0.0299 -0.01235 0.0
          0.0286 -0.01235 0.0
          0.0273 -0.01235 0.0
          0.026 -0.01235 0.0
          0.0247 -0.01235 0.0
          0.0234 -0.01235 0.0
          0.0221 -0.01235 0.0
          0.0208 -0.01235 0.0
          0.0195 -0.01235 0.0
          0.0182 -0.01235 0.0
          0.0169 -0.01235 0.0
          0.0156 -0.01235 0.0
          0.0143 -0.01235 0.0
          0.013 -0.01235 0.0
          0.0117 -0.01235 0.0
          0.0104 -0.01235 0.0
          0.0091 -0.01235 0.0
          0.0078 -0.01235 0.0
          0.0065 -0.01235 0.0
          0.0052 -0.01235 0.0
          0.0039 -0.01235 0.0
          0.0026 -0.01235 0.0
          0.0013 -0.01235 0.0
          0 -0.01235 0.0
          0.039 -0.01365 0.0
          0.0377 -0.01365 0.0
          0.0364 -0.01365 0.0
          0.0351 -0.01365 0.0
          0.0338 -0.01365 0.0
          0.0325 -0.01365 0.0
          0.0312 -0.01365 0.0
          0.0299 -0.01365 0.0
          0.0286 -0.01365 0.0
          0.0273 -0.01365 0.0
          0.026 -0.01365 0.0
          0.0247 -0.01365 0.0
          0.0234 -0.01365 0.0
          0.0221 -0.01365 0.0
          0.0208 -0.01365 0.0
          0.0195 -0.01365 0.0
          0.0182 -0.01365 0.0
          0.0169 -0.01365 0.0
          0.0156 -0.01365 0.0
          0.0143 -0.01365 0.0
          0.013 -0.01365 0.0
          0.0117 -0.01365 0.0
          0.0104 -0.01365 0.0
          0.0091 -0.01365 0.0
          0.0078 -0.01365 0.0
          0.0065 -0.01365 0.0
          0.0052 -0.01365 0.0
          0.0039 -0.01365 0.0
          0.0026 -0.01365 0.0
          0.0013 -0.01365 0.0
          0 -0.01365 0.0
          0.039 -0.01495 0.0
          0.0377 -0.01495 0.0
          0.0364 -0.01495 0.0
          0.0351 -0.01495 0.0
          0.0338 -0.01495 0.0
          0.0325 -0.01495 0.0
          0.0312 -0.01495 0.0
          0.0299 -0.01495 0.0
          0.0286 -0.01495 0.0
          0.0273 -0.01495 0.0
          0.026 -0.01495 0.0
          0.0247 -0.01495 0.0
          0.0234 -0.01495 0.0