<?xml version="1.0"?>
<VTKFile type="UnstructuredGrid" version="0.1" byte_order="LittleEndian">
  <UnstructuredGrid>
    <Piece NumberOfPoints="961" NumberOfCells="900">
      <PointData Scalars="Temperature">
        <DataArray type="Float32" Name="Temperature" format="ascii">
          21.0034
          21.0571
          21.1127
          21.168
          21.2144
          21.2451
          21.2573
          21.2573
          21.2544
          21.2558
          21.262
          21.2678
          21.2681
          21.2631
          21.2581
          21.2582
          21.2635
          21.2687
          21.2685
          21.2628
          21.2568
          21.2555
          21.2588
          21.2594
          21.2486
          21.2209
          21.1794
          21.131
          21.0843
          21.0417
          21.0025
          21.0554
          21.9186
          22.8436
          23.7706
          24.5731
          25.0759
          25.2584
          25.2178
          25.1438
          25.1669
          25.2914
          25.409
          25.4137
          25.3079
          25.2022
          25.205
          25.3156
          25.4245
          25.4216
          25.3052
          25.1824
          25.1622
          25.2408
          25.2899
          25.1294
          24.6734
          23.9516
          23.1379
          22.3574
          21.6734
          21.0405
          21.103
          22.7126
          24.4621
          26.5499
          28.2448
          29.3206
          29.4985
          29.2005
          28.8776
          28.9253
          29.3298
          29.7203
          29.7248
          29.3542
          28.9848
          28.9916
          29.3711
          29.7477
          29.7449
          29.3557
          28.954
          28.9123
          29.2426
          29.5508
          29.3945
          28.4031
          26.864
          25.0069
          23.5311
          22.2548
          21.0756
          21.1425
          23.3685
          25.8093
          28.7282
          33.9745
          33.975
          33.9752
          33.9749
          31.6685
          31.7331
          34.2013
          34.2016
          34.2016
          34.2013
          31.8079
          31.818
          34.2382
          34.2385
          34.2385
          34.2382
          31.7714
          31.7148
          34.04
          34.0402
          34.0401
          34.0395
          29.1421
          26.5645
          24.5115
          22.7456
          21.1052
          21.1712
          23.8398
          26.7103
          30.1092
          33.9757
          33.976
          33.9761
          33.9761
          33.2993
          33.3747
          34.2024
          34.2024
          34.2024
          34.2024
          33.4563
          33.4686
          34.2393
          34.2394
          34.2394
          34.2393
          33.4183
          33.3522
          34.0411
          34.0411
          34.041
          34.0408
          30.5948
          27.6333
          25.2398
          23.1206
          21.1281
          21.1893
          24.1257
          27.205
          30.5039
          33.9779
          33.9781
          33.9782
          33.9782
          33.8145
          33.8899
          34.2044
          34.2044
          34.2044
          34.2044
          33.9756
          33.9879
          34.2413
          34.2414
          34.2413
          34.2413
          33.9353
          33.8693
          34.0432
          34.0432
          34.0431
          34.0429
          31.0527
          28.2549
          25.7144
          23.3788
          21.1441
          21.1991
          24.275
          27.4201
          30.664
          33.9811
          33.9813
          33.9814
          33.9814
          33.9786
          34.0539
          34.2074
          34.2074
          34.2074
          34.2074
          34.141
          34.1533
          34.2443
          34.2444
          34.2443
          34.2443
          34.1
          34.034
          34.0464
          34.0464
          34.0463
          34.0461
          31.2598
          28.5615
          25.9925
          23.5398
          21.1543
          21.2038
          24.3443
          27.5169
          30.7344
          33.9853
          33.9855
          33.9856
          33.9857
          34.0333
          34.1086
          34.2114
          34.2114
          34.2114
          34.2114
          34.1959
          34.2082
          34.2484
          34.2484
          34.2484
          34.2484
          34.1547
          34.0888
          34.0506
          34.0506
          34.0505
          34.0503
          31.3627
          28.7199
          26.1444
          23.6328
          21.1603
          21.206
          24.3762
          27.5614
          30.7677
          33.9907
          33.9908
          33.9909
          33.991
          34.0544
          34.1295
          34.2164
          34.2164
          34.2164
          34.2164
          34.2169
          34.2292
          34.2534
          34.2534
          34.2534
          34.2534
          34.1757
          34.1099
          34.0559
          34.0558
          34.0558
          34.0556
          31.4175
          28.804
          26.2266
          23.6843
          21.1637
          21.207
          24.3915
          27.5832
          30.7855
          33.997
          33.9972
          33.9973
          33.9973
          34.0656
          34.1406
          34.2224
          34.2224
          34.2224
          34.2224
          34.2279
          34.2402
          34.2594
          34.2594
          34.2594
          34.2594
          34.1868
          34.1211
          34.0622
          34.0622
          34.0621
          34.0619
          31.4488
          28.8501
          26.2717
          23.7126
          21.1655
          21.2076
          24.3994
          27.5951
          30.7968
          34.0045
          34.0046
          34.0047
          34.0048
          34.0744
          34.1493
          34.2294
          34.2294
          34.2294
          34.2294
          34.2365
          34.2488
          34.2664
          34.2664
          34.2664
          34.2664
          34.1955
          34.1299
          34.0695
          34.0695
          34.0694
          34.0693
          31.4685
          28.8769
          26.2971
          23.7284
          21.1666
          21.2079
          24.4043
          27.6031
          30.8058
          34.0129
          34.0131
          34.0132
          34.0133
          34.0833
          34.158
          34.2374
          34.2374
          34.2374
          34.2374
          34.245
          34.2573
          34.2744
          34.2744
          34.2744
          34.2744
          34.2042
          34.1387
          34.0779
          34.0779
          34.0778
          34.0777
          31.4825
          28.8938
          26.3125
          23.7378
          21.1672
          21.2081
          24.408
          27.6096
          30.8141
          34.0225
          34.0227
          34.0228
          34.0228
          34.0928
          34.1673
          34.2464
          34.2464
          34.2464
          34.2464
          34.2541
          34.2664
          34.2834
          34.2834
          34.2834
          34.2834
          34.2135
          34.1482
          34.0874
          34.0874
          34.0873
          34.0871
          31.494
          28.9059
          26.3228
          23.744
          21.1676
          21.2083
          24.4114
          27.6157
          30.8226
          34.0331
          34.0333
          34.0334
          34.0334
          34.1032
          34.1775
          34.2564
          34.2564
          34.2564
          34.2564
          34.2642
          34.2765
          34.2934
          34.2934
          34.2934
          34.2934
          34.2237
          34.1585
          34.0979
          34.0979
          34.0978
          34.0976
          31.5047
          28.916
          26.3309
          23.7486
          21.1678
          21.2085
          24.4147
          27.6221
          30.8317
          34.0448
          34.0449
          34.045
          34.0451
          34.1147
          34.1888
          34.2674
          34.2674
          34.2674
          34.2674
          34.2752
          34.2875
          34.3044
          34.3044
          34.3044
          34.3044
          34.2349
          34.1699
          34.1094
          34.1094
          34.1093
          34.1092
          31.5156
          28.9256
          26.3383
          23.7527
          21.1681
          21.2088
          24.4184
          27.629
          30.8416
          34.0575
          34.0577
          34.0578
          34.0578
          34.1272
          34.201
          34.2794
          34.2794
          34.2794
          34.2794
          34.2872
          34.2995
          34.3164
          34.3164
          34.3164
          34.3164
          34.2471
          34.1823
          34.122
          34.122
          34.1219
          34.1218
          31.5274
          28.9359
          26.3461
          23.7571
          21.1684
          21.209
          24.4225
          27.6367
          30.8525
          34.0713
          34.0714
          34.0715
          34.0716
          34.1407
          34.2143
          34.2923
          34.2923
          34.2924
          34.2924
          34.3002
          34.3125
          34.3293
          34.3293
          34.3293
          34.3293
          34.2603
          34.1957
          34.1357
          34.1356
          34.1356
          34.1354
          31.5407
          28.948
          26.3555
          23.7625
          21.1687
          21.2093
          24.4274
          27.6457
          30.8647
          34.0861
          34.0863
          34.0864
          34.0864
          34.1552
          34.2285
          34.3063
          34.3063
          34.3063
          34.3063
          34.3141
          34.3265
          34.3433
          34.3433
          34.3433
          34.3433
          34.2745
          34.2102
          34.1504
          34.1503
          34.1502
          34.1501
          31.5565
          28.9635
          26.3682
          23.7698
          21.1692
          21.2097
          24.434
          27.6569
          30.8789
          34.102
          34.1022
          34.1023
          34.1023
          34.1708
          34.2438
          34.3213
          34.3213
          34.3213
          34.3213
          34.3291
          34.3415
          34.3583
          34.3583
          34.3583
          34.3583
          34.2897
          34.2257
          34.1661
          34.1661
          34.166
          34.1658
          31.5766
          28.9852
          26.3871
          23.7811
          21.1699
          21.2105
          24.4437
          27.6728
          30.8968
          34.1189
          34.1191
          34.1192
          34.1193
          34.1875
          34.2601
          34.3373
          34.3373
          34.3373
          34.3373
          34.3451
          34.3574
          34.3743
          34.3743
          34.3743
          34.3743
          34.306
          34.2422
          34.1829
          34.1828
          34.1827
          34.1826
          31.6043
          29.0184
          26.4173
          23.7996
          21.1712
          21.2111
          24.4605
          27.6983
          30.9218
          34.137
          34.1371
          34.1372
          34.1373
          34.2051
          34.2774
          34.3542
          34.3542
          34.3543
          34.3543
          34.3621
          34.3745
          34.3913
          34.3913
          34.3913
          34.3913
          34.3233
          34.2597
          34.2007
          34.2007
          34.2006
          34.2004
          31.6453
          29.0729
          26.4689
          23.832
          21.1729
          21.2152
          24.4921
          27.7451
          30.9619
          34.156
          34.1562
          34.1563
          34.1564
          34.2238
          34.2958
          34.3722
          34.3722
          34.3722
          34.3722
          34.3802
          34.3925
          34.4093
          34.4093
          34.4092
          34.4092
          34.3415
          34.2783
          34.2196
          34.2195
          34.2194
          34.2193
          31.7108
          29.1669
          26.5612
          23.8898
          21.1786
          21.2114
          24.5614
          27.8379
          31.0353
          34.1761
          34.1763
          34.1765
          34.1765
          34.2436
          34.3151
          34.3911
          34.3911
          34.3912
          34.3913
          34.3995
          34.4118
          34.4283
          34.4282
          34.4282
          34.4282
          34.3609
          34.298
          34.2395
          34.2395
          34.2393
          34.2391
          31.821
          29.3352
          26.7297
          24.0016
          21.1775
          21.2581
          24.6949
          28.0408
          31.1804
          34.1972
          34.1974
          34.1977
          34.1979
          34.2646
          34.3355
          34.4109
          34.411
          34.4113
          34.4114
          34.4203
          34.4326
          34.4484
          34.4483
          34.4481
          34.448
          34.3814
          34.319
          34.2606
          34.2605
          34.2602
          34.26
          32.0113
          29.6392
          27.0516
          24.1995
          21.2283
          21.1173
          25.0755
          28.4613
          31.4887
          34.2189
          34.2194
          34.2202
          34.2206
          34.287
          34.3569
          34.4313
          34.4317
          34.4325
          34.4329
          34.4436
          34.4558
          34.4697
          34.4694
          34.4689
          34.4686
          34.4032
          34.3416
          34.2831
          34.2827
          34.2819
          34.2815
          32.3321
          30.1964
          27.6468
          24.672
          21.0925
          21.9011
          25.636
          29.4997
          32.0833
          34.2407
          34.242
          34.2442
          34.2454
          34.3118
          34.3798
          34.4514
          34.4528
          34.4553
          34.4567
          34.4718
          34.4837
          34.4928
          34.4919
          34.4903
          34.4894
          34.4272
          34.3672
          34.3076
          34.3064
          34.3042
          34.3029
          32.8312
          31.148
          28.9227
          25.3531
          21.8863
          18.8167
          28.7531
          31.4694
          33.0412
          34.2607
          34.2635
          34.2713
          34.2741
          34.3432
          34.4041
          34.469
          34.4724
          34.4816
          34.4849
          34.5113
          34.5219
          34.5191
          34.517
          34.5111
          34.509
          34.4545
          34.4005
          34.3362
          34.3333
          34.3254
          34.3225
          33.5156
          32.5654
          31.1866
          28.6234
          18.7998
          34.2202
          34.2384
          34.2519
          34.2645
          34.2739
          34.2816
          34.2967
          34.3257
          34.3886
          34.4329
          34.4722
          34.4907
          34.509
          34.5338
          34.5733
          34.5808
          34.5591
          34.5431
          34.5314
          34.5197
          34.4903
          34.4497
          34.3878
          34.3587
          34.3431
          34.3349
          34.3242
          34.3111
          34.2978
          34.2841
          34.2658
          34.2275
          34.2402
          34.2528
          34.2654
          34.2785
          34.2944
          34.3165
          34.3498
          34.3909
          34.4359
          34.4759
          34.51
          34.5382
          34.5639
          34.5831
          34.5905
          34.5849
          34.5714
          34.5539
          34.5292
          34.4955
          34.4533
          34.4123
          34.3785
          34.3557
          34.339
          34.3249
          34.3115
          34.2986
          34.2858
          34.2731
          34.2357
          34.2437
          34.2543
          34.2672
          34.2825
          34.3016
          34.3266
          34.3586
          34.3974
          34.4415
          34.4907
          34.536
          34.57
          34.5951
          34.6116
          34.6185
          34.6154
          34.6035
          34.5831
          34.5528
          34.5095
          34.4624
          34.4219
          34.3889
          34.3629
          34.3429
          34.3265
          34.3123
          34.2998
          34.2892
          34.2812
          34.2417
          34.2452
          34.2551
          34.268
          34.284
          34.304
          34.3295
          34.3615
          34.3998
          34.4445
          34.4997
          34.5516
          34.5874
          34.6128
          34.6289
          34.6357
          34.633
          34.6212
          34.6
          34.5677
          34.5185
          34.4661
          34.4252
          34.3919
          34.3653
          34.3443
          34.3272
          34.3127
          34.3004
          34.2906
          34.2872
        </DataArray>
      </PointData>
      <CellData>
      </CellData>
      <Points>
        <DataArray type="Float32" NumberOfComponents="3" format="ascii">
          0.039 0.00195 0.0
          0.0377 0.00195 0.0
          0.0364 0.00195 0.0
          0.0351 0.00195 0.0
          0.0338 0.00195 0.0
          0.0325 0.00195 0.0
          0.0312 0.00195 0.0
          0.0299 0.00195 0.0
          0.0286 0.00195 0.0
          0.0273 0.00195 0.0
          0.026 0.00195 0.0
          0.0247 0.00195 0.0
          0.0234 0.00195 0.0
          0.0221 0.00195 0.0
          0.0208 0.00195 0.0
          0.0195 0.00195 0.0
          0.0182 0.00195 0.0
          0.0169 0.00195 0.0
          0.0156 0.00195 0.0
          0.0143 0.00195 0.0
          0.013 0.00195 0.0
          0.0117 0.00195 0.0
          0.0104 0.00195 0.0
          0.0091 0.00195 0.0
          0.0078 0.00195 0.0
          0.0065 0.00195 0.0
          0.0052 0.00195 0.0
          0.0039 0.00195 0.0
          0.0026 0.00195 0.0
          0.0013 0.00195 0.0
          0 0.00195 0.0
          0.039 0.00065 0.0
          0.0377 0.00065 0.0
          0.0364 0.00065 0.0
          0.0351 0.00065 0.0
          0.0338 0.00065 0.0
          0.0325 0.00065 0.0
          0.0312 0.00065 0.0
          0.0299 0.00065 0.0
          0.0286 0.00065 0.0
          0.0273 0.00065 0.0
          0.026 0.00065 0.0
          0.0247 0.00065 0.0
          0.0234 0.00065 0.0
          0.0221 0.00065 0.0
          0.0208 0.00065 0.0
          0.0195 0.00065 0.0
          0.0182 0.00065 0.0
          0.0169 0.00065 0.0
          0.0156 0.00065 0.0
          0.0143 0.00065 0.0
          0.013 0.00065 0.0
          0.0117 0.00065 0.0
          0.0104 0.00065 0.0
          0.0091 0.00065 0.0
          0.0078 0.00065 0.0
          0.0065 0.00065 0.0
          0.0052 0.00065 0.0
          0.0039 0.00065 0.0
          0.0026 0.00065 0.0
          0.0013 0.00065 0.0
          0 0.00065 0.0
          0.039 -0.00065 0.0
          0.0377 -0.00065 0.0
          0.0364 -0.00065 0.0
          0.0351 -0.00065 0.0
          0.0338 -0.00065 0.0
          0.0325 -0.00065 0.0
          0.0312 -0.00065 0.0
          0.0299 -0.00065 0.0
          0.0286 -0.00065 0.0
          0.0273 -0.00065 0.0
          0.026 -0.00065 0.0
          0.0247 -0.00065 0.0
          0.0234 -0.00065 0.0
          0.0221 -0.00065 0.0
          0.0208 -0.00065 0.0
          0.0195 -0.00065 0.0
          0.0182 -0.00065 0.0
          0.0169 -0.00065 0.0
          0.0156 -0.00065 0.0
          0.0143 -0.00065 0.0
          0.013 -0.00065 0.0
          0.0117 -0.00065 0.0
          0.0104 -0.00065 0.0
          0.0091 -0.00065 0.0
          0.0078 -0.00065 0.0
          0.0065 -0.00065 0.0
          0.0052 -0.00065 0.0
          0.0039 -0.00065 0.0
          0.0026 -0.00065 0.0
          0.0013 -0.00065 0.0
          0 -0.00065 0.0
          0.039 -0.00195 0.0
          0.0377 -0.00195 0.0
          0.0364 -0.00195 0.0
          0.0351 -0.00195 0.0
          0.0338 -0.00195 0.0
          0.0325 -0.00195 0.0
          0.0312 -0.00195 0.0
          0.0299 -0.00195 0.0
          0.0286 -0.00195 0.0
          0.0273 -0.00195 0.0
          0.026 -0.00195 0.0
          0.0247 -0.00195 0.0
          0.0234 -0.00195 0.0
          0.0221 -0.00195 0.0
          0.0208 -0.00195 0.0
          0.0195 -0.00195 0.0
          0.0182 -0.00195 0.0
          0.0169 -0.00195 0.0
          0.0156 -0.00195 0.0
          0.0143 -0.00195 0.0
          0.013 -0.00195 0.0
          0.0117 -0.00195 0.0
          0.0104 -0.00195 0.0
          0.0091 -0.00195 0.0
          0.0078 -0.00195 0.0
          0.0065 -0.00195 0.0
          0.0052 -0.00195 0.0
          0.0039 -0.00195 0.0
          0.0026 -0.00195 0.0
          0.0013 -0.00195 0.0
          0 -0.00195 0.0
          0.039 -0.00325 0.0
          0.0377 -0.00325 0.0
          0.0364 -0.00325 0.0
          0.0351 -0.00325 0.0
          0.0338 -0.00325 0.0
          0.0325 -0.00325 0.0
          0.0312 -0.00325 0.0
          0.0299 -0.00325 0.0
          0.0286 -0.00325 0.0
          0.0273 -0.00325 0.0
          0.026 -0.00325 0.0
          0.0247 -0.00325 0.0
          0.0234 -0.00325 0.0
          0.0221 -0.00325 0.0
          0.0208 -0.00325 0.0
          0.0195 -0.00325 0.0
          0.0182 -0.00325 0.0
          0.0169 -0.00325 0.0
          0.0156 -0.00325 0.0
          0.0143 -0.00325 0.0
          0.013 -0.00325 0.0
          0.0117 -0.00325 0.0
          0.0104 -0.00325 0.0
          0.0091 -0.00325 0.0
          0.0078 -0.00325 0.0
          0.0065 -0.00325 0.0
          0.0052 -0.00325 0.0
          0.0039 -0.00325 0.0
          0.0026 -0.00325 0.0
          0.0013 -0.00325 0.0
          0 -0.00325 0.0
          0.039 -0.00455 0.0
          0.0377 -0.00455 0.0
          0.0364 -0.00455 0.0
          0.0351 -0.00455 0.0
          0.0338 -0.00455 0.0
          0.0325 -0.00455 0.0
          0.0312 -0.00455 0.0
          0.0299 -0.00455 0.0
          0.0286 -0.00455 0.0
          0.0273 -0.00455 0.0
          0.026 -0.00455 0.0
          0.0247 -0.00455 0.0
          0.0234 -0.00455 0.0
          0.0221 -0.00455 0.0
          0.0208 -0.00455 0.0
          0.0195 -0.00455 0.0
          0.0182 -0.00455 0.0
          0.0169 -0.00455 0.0
          0.0156 -0.00455 0.0
          0.0143 -0.00455 0.0
          0.013 -0.00455 0.0
          0.0117 -0.00455 0.0
          0.0104 -0.00455 0.0
          0.0091 -0.00455 0.0
          0.0078 -0.00455 0.0
          0.0065 -0.00455 0.0
          0.0052 -0.00455 0.0
          0.0039 -0.00455 0.0
          0.0026 -0.00455 0.0
          0.0013 -0.00455 0.0
          0 -0.00455 0.0
          0.039 -0.00585 0.0
          0.0377 -0.00585 0.0
          0.0364 -0.00585 0.0
          0.0351 -0.00585 0.0
          0.0338 -0.00585 0.0
          0.0325 -0.00585 0.0
          0.0312 -0.00585 0.0
          0.0299 -0.00585 0.0
          0.0286 -0.00585 0.0
          0.0273 -0.00585 0.0
          0.026 -0.00585 0.0
          0.0247 -0.00585 0.0
          0.0234 -0.00585 0.0
          0.0221 -0.00585 0.0
          0.0208 -0.00585 0.0
          0.0195 -0.00585 0.0
          0.0182 -0.00585 0.0
          0.0169 -0.00585 0.0
          0.0156 -0.00585 0.0
          0.0143 -0.00585 0.0
          0.013 -0.00585 0.0
          0.0117 -0.00585 0.0
          0.0104 -0.00585 0.0
          0.0091 -0.00585 0.0
          0.0078 -0.00585 0.0
          0.0065 -0.00585 0.0
          0.0052 -0.00585 0.0
          0.0039 -0.00585 0.0
          0.0026 -0.00585 0.0
          0.0013 -0.00585 0.0
          0 -0.00585 0.0
          0.039 -0.00715 0.0
          0.0377 -0.00715 0.0
          0.0364 -0.00715 0.0
          0.0351 -0.00715 0.0
          0.0338 -0.00715 0.0
          0.0325 -0.00715 0.0
          0.0312 -0.00715 0.0
          0.0299 -0.00715 0.0
          0.0286 -0.00715 0.0
          0.0273 -0.00715 0.0
          0.026 -0.00715 0.0
          0.0247 -0.00715 0.0
          0.0234 -0.00715 0.0
          0.0221 -0.00715 0.0
          0.0208 -0.00715 0.0
          0.0195 -0.00715 0.0
          0.0182 -0.00715 0.0
          0.0169 -0.00715 0.0
          0.0156 -0.00715 0.0
          0.0143 -0.00715 0.0
          0.013 -0.00715 0.0
          0.0117 -0.00715 0.0
          0.0104 -0.00715 0.0
          0.0091 -0.00715 0.0
          0.0078 -0.00715 0.0
          0.0065 -0.00715 0.0
          0.0052 -0.00715 0.0
          0.0039 -0.00715 0.0
          0.0026 -0.00715 0.0
          0.0013 -0.00715 0.0
          0 -0.00715 0.0
          0.039 -0.00845 0.0
          0.0377 -0.00845 0.0
          0.0364 -0.00845 0.0
          0.0351 -0.00845 0.0
          0.0338 -0.00845 0.0
          0.0325 -0.00845 0.0
          0.0312 -0.00845 0.0
          0.0299 -0.00845 0.0
          0.0286 -0.00845 0.0
          0.0273 -0.00845 0.0
          0.026 -0.00845 0.0
          0.0247 -0.00845 0.0
          0.0234 -0.00845 0.0
          0.0221 -0.00845 0.0
          0.0208 -0.00845 0.0
          0.0195 -0.00845 0.0
          0.0182 -0.00845 0.0
          0.0169 -0.00845 0.0
          0.0156 -0.00845 0.0
          0.0143 -0.00845 0.0
          0.013 -0.00845 0.0
          0.0117 -0.00845 0.0
          0.0104 -0.00845 0.0
          0.0091 -0.00845 0.0
          0.0078 -0.00845 0.0
          0.0065 -0.00845 0.0
          0.0052 -0.00845 0.0
          0.0039 -0.00845 0.0
          0.0026 -0.00845 0.0
          0.0013 -0.00845 0.0
          0 -0.00845 0.0
          0.039 -0.00975 0.0
          0.0377 -0.00975 0.0
          0.0364 -0.00975 0.0
          0.0351 -0.00975 0.0
          0.0338 -0.00975 0.0
          0.0325 -0.00975 0.0
          0.0312 -0.00975 0.0
          0.0299 -0.00975 0.0
          0.0286 -0.00975 0.0
          0.0273 -0.00975 0.0
          0.026 -0.00975 0.0
          0.0247 -0.00975 0.0
          0.0234 -0.00975 0.0
          0.0221 -0.00975 0.0
          0.0208 -0.00975 0.0
          0.0195 -0.00975 0.0
          0.0182 -0.00975 0.0
          0.0169 -0.00975 0.0
          0.0156 -0.00975 0.0
          0.0143 -0.00975 0.0
          0.013 -0.00975 0.0
          0.0117 -0.00975 0.0
          0.0104 -0.00975 0.0
          0.0091 -0.00975 0.0
          0.0078 -0.00975 0.0
          0.0065 -0.00975 0.0
          0.0052 -0.00975 0.0
          0.0039 -0.00975 0.0
          0.0026 -0.00975 0.0
          0.0013 -0.00975 0.0
          0 -0.00975 0.0
          0.039 -0.01105 0.0
          0.0377 -0.01105 0.0
          0.0364 -0.01105 0.0
          0.0351 -0.01105 0.0
          0.0338 -0.01105 0.0
          0.0325 -0.01105 0.0
          0.0312 -0.01105 0.0
          0.0299 -0.01105 0.0
          0.0286 -0.01105 0.0
          0.0273 -0.01105 0.0
          0.026 -0.01105 0.0
          0.0247 -0.01105 0.0
          0.0234 -0.01105 0.0
          0.0221 -0.01105 0.0
          0.0208 -0.01105 0.0
          0.0195 -0.01105 0.0
          0.0182 -0.01105 0.0
          0.0169 -0.01105 0.0
          0.0156 -0.01105 0.0
          0.0143 -0.01105 0.0
          0.013 -0.01105 0.0
          0.0117 -0.01105 0.0
          0.0104 -0.01105 0.0
          0.0091 -0.01105 0.0
          0.0078 -0.01105 0.0
          0.0065 -0.01105 0.0
          0.0052 -0.01105 0.0
          0.0039 -0.01105 0.0
          0.0026 -0.01105 0.0
          0.0013 -0.01105 0.0
          0 -0.01105 0.0
          0.039 -0.01235 0.0
          0.0377 -0.01235 0.0
          0.0364 -0.01235 0.0
          0.0351 -0.01235 0.0
          0.0338 -0.01235 0.0
          0.0325 -0.01235 0.0
          0.0312 -0.01235 0.0
          0.0299 -0.01235 0.0
          0.0286 -0.01235 0.0
          0.0273 -0.01235 0.0
          0.026 -0.01235 0.0
          0.0247 -0.01235 0.0
          0.0234 -0.01235 0.0
          0.0221 -0.01235 0.0
          0.0208 -0.01235 0.0
          0.0195 -0.01235 0.0
          0.0182 -0.01235 0.0
          0.0169 -0.01235 0.0
          0.0156 -0.01235 0.0
          0.0143 -0.01235 0.0
          0.013 -0.01235 0.0
          0.0117 -0.01235 0.0
          0.0104 -0.01235 0.0
          0.0091 -0.01235 0.0
          0.0078 -0.01235 0.0
          0.0065 -0.01235 0.0
          0.0052 -0.01235 0.0
          0.0039 -0.01235 0.0
          0.0026 -0.01235 0.0
          0.0013 -0.01235 0.0
          0 -0.01235 0.0
          0.039 -0.01365 0.0
          0.0377 -0.01365 0.0
          0.0364 -0.01365 0.0
          0.0351 -0.01365 0.0
          0.0338 -0.01365 0.0
          0.0325 -0.01365 0.0
          0.0312 -0.01365 0.0
          0.0299 -0.01365 0.0
          0.0286 -0.01365 0.0
          0.0273 -0.01365 0.0
          0.026 -0.01365 0.0
          0.0247 -0.01365 0.0
          0.0234 -0.01365 0.0
          0.0221 -0.01365 0.0
          0.0208 -0.01365 0.0
          0.0195 -0.01365 0.0
          0.0182 -0.01365 0.0
          0.0169 -0.01365 0.0
          0.0156 -0.01365 0.0
          0.0143 -0.01365 0.0
          0.013 -0.01365 0.0
          0.0117 -0.01365 0.0
          0.0104 -0.01365 0.0
          0.0091 -0.01365 0.0
          0.0078 -0.01365 0.0
          0.0065 -0.01365 0.0
          0.0052 -0.01365 0.0
          0.0039 -0.01365 0.0
          0.0026 -0.01365 0.0
          0.0013 -0.01365 0.0
          0 -0.01365 0.0
          0.039 -0.01495 0.0
          0.0377 -0.01495 0.0
          0.0364 -0.01495 0.0
          0.0351 -0.01495 0.0
          0.0338 -0.01495 0.0
          0.0325 -0.01495 0.0
          0.0312 -0.01495 0.0
          0.0299 -0.01495 0.0
          0.0286 -0.01495 0.0
          0.0273 -0.01495 0.0
          0.026 -0.01495 0.0
          0.0247 -0.01495 0.0
          0.0234 -0.01495 0.0