<?xml version="1.0"?>
<VTKFile type="UnstructuredGrid" version="0.1" byte_order="LittleEndian">
  <UnstructuredGrid>
    <Piece NumberOfPoints="961" NumberOfCells="900">
      <PointData Scalars="Temperature">
        <DataArray type="Float32" Name="Temperature" format="ascii">
          21.0038
          21.0636
          21.1256
          21.1872
          21.2389
          21.2731
          21.2867
          21.2867
          21.2833
          21.2849
          21.2916
          21.298
          21.2983
          21.2928
          21.2872
          21.2873
          21.2932
          21.299
          21.2988
          21.2925
          21.2859
          21.2845
          21.2882
          21.2889
          21.277
          21.2461
          21.1998
          21.1459
          21.0939
          21.0464
          21.0028
          21.0617
          22.0237
          23.0546
          24.0876
          24.9818
          25.5419
          25.7451
          25.6991
          25.6154
          25.6396
          25.777
          25.9071
          25.9119
          25.794
          25.6761
          25.6789
          25.8017
          25.9228
          25.9197
          25.7908
          25.6554
          25.6342
          25.7227
          25.778
          25.5996
          25.0917
          24.2878
          23.3814
          22.5121
          21.7501
          21.0452
          21.1147
          22.9086
          24.8582
          27.1847
          29.0733
          30.2719
          30.4698
          30.1366
          29.7745
          29.8239
          30.2715
          30.7047
          30.7093
          30.2967
          29.8851
          29.892
          30.3136
          30.7323
          30.7294
          30.2976
          29.8529
          29.8096
          30.1795
          30.5239
          30.35
          29.246
          27.5318
          25.4634
          23.8196
          22.3979
          21.0842
          21.1588
          23.6395
          26.3595
          29.612
          35.4574
          35.458
          35.4582
          35.4579
          32.8831
          32.9497
          35.6901
          35.6905
          35.6905
          35.6901
          33.0265
          33.0366
          35.7272
          35.7275
          35.7275
          35.7272
          32.9883
          32.93
          35.5238
          35.5241
          35.524
          35.5233
          30.0692
          27.1985
          24.9117
          22.9445
          21.1172
          21.1908
          24.1647
          27.3635
          31.1507
          35.4587
          35.459
          35.4591
          35.4591
          34.6995
          34.7769
          35.6913
          35.6913
          35.6913
          35.6913
          34.8605
          34.8728
          35.7284
          35.7284
          35.7284
          35.7284
          34.8208
          34.753
          35.525
          35.525
          35.5249
          35.5247
          31.6872
          28.3889
          25.7229
          23.3623
          21.1427
          21.211
          24.4833
          27.9147
          31.5905
          35.4609
          35.4611
          35.4613
          35.4613
          35.273
          35.3503
          35.6933
          35.6933
          35.6933
          35.6933
          35.4381
          35.4504
          35.7304
          35.7304
          35.7304
          35.7304
          35.3961
          35.3284
          35.5272
          35.5272
          35.527
          35.5269
          32.1971
          29.0812
          26.2515
          23.6499
          21.1606
          21.2219
          24.6496
          28.1542
          31.7687
          35.4642
          35.4643
          35.4645
          35.4645
          35.4554
          35.5327
          35.6963
          35.6963
          35.6963
          35.6963
          35.6217
          35.634
          35.7334
          35.7334
          35.7334
          35.7334
          35.5791
          35.5114
          35.5304
          35.5303
          35.5302
          35.5301
          32.4275
          29.4225
          26.5612
          23.8292
          21.1719
          21.2272
          24.7267
          28.2618
          31.8467
          35.4684
          35.4686
          35.4687
          35.4688
          35.5158
          35.593
          35.7003
          35.7003
          35.7003
          35.7003
          35.6823
          35.6947
          35.7374
          35.7374
          35.7374
          35.7374
          35.6396
          35.572
          35.5346
          35.5345
          35.5345
          35.5343
          32.5417
          29.5987
          26.7302
          23.9327
          21.1786
          21.2296
          24.7621
          28.3111
          31.8834
          35.4737
          35.4739
          35.474
          35.4741
          35.5387
          35.6157
          35.7053
          35.7053
          35.7053
          35.7053
          35.7051
          35.7175
          35.7424
          35.7424
          35.7424
          35.7424
          35.6624
          35.5949
          35.5398
          35.5398
          35.5397
          35.5396
          32.6023
          29.692
          26.8216
          23.9899
          21.1823
          21.2307
          24.7789
          28.335
          31.9026
          35.4801
          35.4803
          35.4804
          35.4804
          35.5504
          35.6274
          35.7112
          35.7112
          35.7112
          35.7112
          35.7166
          35.729
          35.7483
          35.7483
          35.7483
          35.7483
          35.674
          35.6066
          35.5461
          35.5461
          35.546
          35.5458
          32.6366
          29.743
          26.8714
          24.0212
          21.1844
          21.2313
          24.7875
          28.3479
          31.9146
          35.4875
          35.4877
          35.4878
          35.4878
          35.5594
          35.6362
          35.7181
          35.7181
          35.7181
          35.7181
          35.7253
          35.7376
          35.7552
          35.7552
          35.7552
          35.7552
          35.6828
          35.6155
          35.5534
          35.5534
          35.5533
          35.5532
          32.6578
          29.7722
          26.8994
          24.0387
          21.1855
          21.2316
          24.7927
          28.3562
          31.9238
          35.4959
          35.4961
          35.4962
          35.4963
          35.5682
          35.6448
          35.726
          35.726
          35.726
          35.726
          35.7337
          35.7461
          35.7631
          35.7631
          35.7631
          35.7631
          35.6914
          35.6243
          35.5618
          35.5618
          35.5617
          35.5615
          32.6726
          29.7904
          26.9162
          24.049
          21.1862
          21.2318
          24.7965
          28.3629
          31.9322
          35.5054
          35.5056
          35.5057
          35.5057
          35.5777
          35.654
          35.7349
          35.7349
          35.7349
          35.7349
          35.7427
          35.7551
          35.772
          35.772
          35.772
          35.772
          35.7006
          35.6336
          35.5712
          35.5711
          35.571
          35.5709
          32.6845
          29.8032
          26.9272
          24.0556
          21.1866
          21.2321
          24.7999
          28.3691
          31.9408
          35.5159
          35.5161
          35.5162
          35.5163
          35.588
          35.6641
          35.7447
          35.7447
          35.7447
          35.7447
          35.7526
          35.765
          35.7818
          35.7818
          35.7818
          35.7818
          35.7107
          35.6439
          35.5816
          35.5815
          35.5814
          35.5813
          32.6954
          29.8137
          26.9356
          24.0605
          21.1869
          21.2323
          24.8033
          28.3754
          31.9498
          35.5275
          35.5277
          35.5278
          35.5278
          35.5993
          35.6752
          35.7555
          35.7555
          35.7555
          35.7555
          35.7635
          35.7758
          35.7926
          35.7926
          35.7926
          35.7926
          35.7217
          35.6552
          35.593
          35.593
          35.5929
          35.5927
          32.7064
          29.8235
          26.9433
          24.0648
          21.1872
          21.2325
          24.8069
          28.3823
          31.9597
          35.5401
          35.5403
          35.5404
          35.5405
          35.6117
          35.6873
          35.7673
          35.7673
          35.7673
          35.7673
          35.7752
          35.7876
          35.8044
          35.8044
          35.8044
          35.8044
          35.7337
          35.6674
          35.6055
          35.6054
          35.6053
          35.6052
          32.7182
          29.834
          26.9514
          24.0693
          21.1875
          21.2327
          24.8111
          28.39
          31.9705
          35.5538
          35.554
          35.5541
          35.5541
          35.625
          35.7003
          35.78
          35.7801
          35.7801
          35.7801
          35.788
          35.8004
          35.8172
          35.8172
          35.8172
          35.8172
          35.7467
          35.6807
          35.619
          35.6189
          35.6188
          35.6187
          32.7317
          29.8465
          26.9612
          24.0749
          21.1878
          21.2331
          24.8161
          28.3991
          31.9827
          35.5685
          35.5687
          35.5688
          35.5688
          35.6394
          35.7144
          35.7938
          35.7938
          35.7938
          35.7938
          35.8017
          35.8141
          35.8309
          35.8309
          35.8309
          35.8309
          35.7607
          35.6949
          35.6335
          35.6335
          35.6334
          35.6332
          32.7478
          29.8626
          26.9746
          24.0827
          21.1883
          21.2335
          24.8229
          28.4107
          31.9971
          35.5842
          35.5844
          35.5845
          35.5846
          35.6548
          35.7295
          35.8085
          35.8085
          35.8085
          35.8085
          35.8165
          35.8288
          35.8457
          35.8457
          35.8457
          35.8457
          35.7757
          35.7102
          35.6491
          35.649
          35.6489
          35.6488
          32.7687
          29.8856
          26.9947
          24.0949
          21.1891
          21.2343
          24.8331
          28.4273
          32.0153
          35.601
          35.6012
          35.6013
          35.6013
          35.6712
          35.7455
          35.8242
          35.8242
          35.8242
          35.8242
          35.8322
          35.8445
          35.8613
          35.8613
          35.8613
          35.8613
          35.7917
          35.7265
          35.6656
          35.6656
          35.6655
          35.6654
          32.7977
          29.9213
          27.0275
          24.115
          21.1905
          21.235
          24.8513
          28.4545
          32.0415
          35.6188
          35.619
          35.6191
          35.6192
          35.6887
          35.7626
          35.8408
          35.8408
          35.8408
          35.8408
          35.8489
          35.8612
          35.878
          35.878
          35.878
          35.878
          35.8087
          35.7438
          35.6833
          35.6832
          35.6831
          35.683
          32.8415
          29.9805
          27.0839
          24.1505
          21.1923
          21.2394
          24.8857
          28.5053
          32.0843
          35.6377
          35.6379
          35.638
          35.6381
          35.7072
          35.7806
          35.8584
          35.8584
          35.8585
          35.8585
          35.8666
          35.879
          35.8957
          35.8957
          35.8956
          35.8956
          35.8267
          35.7621
          35.7019
          35.7019
          35.7018
          35.7016
          32.9125
          30.0835
          27.1856
          24.2143
          21.1986
          21.2352
          24.9621
          28.6073
          32.1641
          35.6576
          35.6578
          35.658
          35.658
          35.7267
          35.7996
          35.877
          35.877
          35.8771
          35.8771
          35.8855
          35.8979
          35.9143
          35.9143
          35.9142
          35.9142
          35.8457
          35.7816
          35.7216
          35.7216
          35.7214
          35.7212
          33.033
          30.269
          27.3718
          24.3379
          21.1974
          21.2871
          25.1099
          28.8315
          32.3235
          35.6784
          35.6787
          35.679
          35.6791
          35.7474
          35.8197
          35.8964
          35.8965
          35.8968
          35.8969
          35.9059
          35.9183
          35.934
          35.9339
          35.9338
          35.9337
          35.8659
          35.8022
          35.7425
          35.7423
          35.742
          35.7418
          33.2424
          30.6053
          27.7284
          24.5573
          21.2538
          21.1305
          25.5322
          29.2975
          32.6641
          35.6999
          35.7004
          35.7012
          35.7016
          35.7695
          35.8408
          35.9163
          35.9168
          35.9176
          35.918
          35.9288
          35.9411
          35.9549
          35.9547
          35.9541
          35.9539
          35.8874
          35.8245
          35.7647
          35.7643
          35.7635
          35.763
          33.5966
          31.2228
          28.3886
          25.0818
          21.1029
          22.0017
          26.1545
          30.4503
          33.323
          35.7214
          35.7227
          35.725
          35.7262
          35.794
          35.8632
          35.936
          35.9374
          35.94
          35.9414
          35.9566
          35.9686
          35.9777
          35.9767
          35.9751
          35.9742
          35.9109
          35.8498
          35.789
          35.7877
          35.7855
          35.7841
          34.149
          32.2784
          29.805
          25.8378
          21.9847
          18.5735
          29.6181
          32.6379
          34.3853
          35.7409
          35.7439
          35.7519
          35.7547
          35.8252
          35.8871
          35.9532
          35.9565
          35.9658
          35.9692
          35.9957
          36.0064
          36.0036
          36.0014
          35.9954
          35.9933
          35.9378
          35.8828
          35.8173
          35.8144
          35.8062
          35.8033
          34.907
          33.8511
          32.3189
          29.4705
          18.5556
          35.6935
          35.7137
          35.7285
          35.7423
          35.7532
          35.7616
          35.7772
          35.8066
          35.8703
          35.9153
          35.9556
          35.9744
          35.9929
          36.0177
          36.0571
          36.0647
          36.0431
          36.0272
          36.0153
          36.0033
          35.9729
          35.9316
          35.8691
          35.8396
          35.8236
          35.8147
          35.8025
          35.7882
          35.7738
          35.7587
          35.7384
          35.7016
          35.7156
          35.7295
          35.7432
          35.7573
          35.7741
          35.7969
          35.8308
          35.8726
          35.9182
          35.9588
          35.9933
          36.0218
          36.0476
          36.0669
          36.0743
          36.0688
          36.0552
          36.0375
          36.0123
          35.9781
          35.9353
          35.8937
          35.8593
          35.8359
          35.8183
          35.8032
          35.7887
          35.7746
          35.7607
          35.7466
          35.7107
          35.7195
          35.7311
          35.745
          35.7612
          35.7812
          35.8069
          35.8396
          35.8791
          35.9237
          35.9735
          36.0192
          36.0535
          36.0787
          36.0954
          36.1023
          36.0992
          36.0871
          36.0664
          36.0358
          35.9921
          35.9444
          35.9033
          35.8696
          35.8429
          35.822
          35.8047
          35.7895
          35.7759
          35.7644
          35.7556
          35.7173
          35.7211
          35.7319
          35.7458
          35.7626
          35.7835
          35.8098
          35.8424
          35.8814
          35.9267
          35.9824
          36.0348
          36.0708
          36.0964
          36.1127
          36.1195
          36.1168
          36.1048
          36.0833
          36.0507
          36.001
          35.948
          35.9065
          35.8726
          35.8453
          35.8234
          35.8054
          35.7899
          35.7766
          35.766
          35.7623
        </DataArray>
      </PointData>
      <CellData>
      </CellData>
      <Points>
        <DataArray type="Float32" NumberOfComponents="3" format="ascii">
          0.039 0.00195 0.0
          0.0377 0.00195 0.0
          0.0364 0.00195 0.0
          0.0351 0.00195 0.0
          0.0338 0.00195 0.0
          0.0325 0.00195 0.0
          0.0312 0.00195 0.0
          0.0299 0.00195 0.0
          0.0286 0.00195 0.0
          0.0273 0.00195 0.0
          0.026 0.00195 0.0
          0.0247 0.00195 0.0
          0.0234 0.00195 0.0
          0.0221 0.00195 0.0
          0.0208 0.00195 0.0
          0.0195 0.00195 0.0
          0.0182 0.00195 0.0
          0.0169 0.00195 0.0
          0.0156 0.00195 0.0
          0.0143 0.00195 0.0
          0.013 0.00195 0.0
          0.0117 0.00195 0.0
          0.0104 0.00195 0.0
          0.0091 0.00195 0.0
          0.0078 0.00195 0.0
          0.0065 0.00195 0.0
          0.0052 0.00195 0.0
          0.0039 0.00195 0.0
          0.0026 0.00195 0.0
          0.0013 0.00195 0.0
          0 0.00195 0.0
          0.039 0.00065 0.0
          0.0377 0.00065 0.0
          0.0364 0.00065 0.0
          0.0351 0.00065 0.0
          0.0338 0.00065 0.0
          0.0325 0.00065 0.0
          0.0312 0.00065 0.0
          0.0299 0.00065 0.0
          0.0286 0.00065 0.0
          0.0273 0.00065 0.0
          0.026 0.00065 0.0
          0.0247 0.00065 0.0
          0.0234 0.00065 0.0
          0.0221 0.00065 0.0
          0.0208 0.00065 0.0
          0.0195 0.00065 0.0
          0.0182 0.00065 0.0
          0.0169 0.00065 0.0
          0.0156 0.00065 0.0
          0.0143 0.00065 0.0
          0.013 0.00065 0.0
          0.0117 0.00065 0.0
          0.0104 0.00065 0.0
          0.0091 0.00065 0.0
          0.0078 0.00065 0.0
          0.0065 0.00065 0.0
          0.0052 0.00065 0.0
          0.0039 0.00065 0.0
          0.0026 0.00065 0.0
          0.0013 0.00065 0.0
          0 0.00065 0.0
          0.039 -0.00065 0.0
          0.0377 -0.00065 0.0
          0.0364 -0.00065 0.0
          0.0351 -0.00065 0.0
          0.0338 -0.00065 0.0
          0.0325 -0.00065 0.0
          0.0312 -0.00065 0.0
          0.0299 -0.00065 0.0
          0.0286 -0.00065 0.0
          0.0273 -0.00065 0.0
          0.026 -0.00065 0.0
          0.0247 -0.00065 0.0
          0.0234 -0.00065 0.0
          0.0221 -0.00065 0.0
          0.0208 -0.00065 0.0
          0.0195 -0.00065 0.0
          0.0182 -0.00065 0.0
          0.0169 -0.00065 0.0
          0.0156 -0.00065 0.0
          0.0143 -0.00065 0.0
          0.013 -0.00065 0.0
          0.0117 -0.00065 0.0
          0.0104 -0.00065 0.0
          0.0091 -0.00065 0.0
          0.0078 -0.00065 0.0
          0.0065 -0.00065 0.0
          0.0052 -0.00065 0.0
          0.0039 -0.00065 0.0
          0.0026 -0.00065 0.0
          0.0013 -0.00065 0.0
          0 -0.00065 0.0
          0.039 -0.00195 0.0
          0.0377 -0.00195 0.0
          0.0364 -0.00195 0.0
          0.0351 -0.00195 0.0
          0.0338 -0.00195 0.0
          0.0325 -0.00195 0.0
          0.0312 -0.00195 0.0
          0.0299 -0.00195 0.0
          0.0286 -0.00195 0.0
          0.0273 -0.00195 0.0
          0.026 -0.00195 0.0
          0.0247 -0.00195 0.0
          0.0234 -0.00195 0.0
          0.0221 -0.00195 0.0
          0.0208 -0.00195 0.0
          0.0195 -0.00195 0.0
          0.0182 -0.00195 0.0
          0.0169 -0.00195 0.0
          0.0156 -0.00195 0.0
          0.0143 -0.00195 0.0
          0.013 -0.00195 0.0
          0.0117 -0.00195 0.0
          0.0104 -0.00195 0.0
          0.0091 -0.00195 0.0
          0.0078 -0.00195 0.0
          0.0065 -0.00195 0.0
          0.0052 -0.00195 0.0
          0.0039 -0.00195 0.0
          0.0026 -0.00195 0.0
          0.0013 -0.00195 0.0
          0 -0.00195 0.0
          0.039 -0.00325 0.0
          0.0377 -0.00325 0.0
          0.0364 -0.00325 0.0
          0.0351 -0.00325 0.0
          0.0338 -0.00325 0.0
          0.0325 -0.00325 0.0
          0.0312 -0.00325 0.0
          0.0299 -0.00325 0.0
          0.0286 -0.00325 0.0
          0.0273 -0.00325 0.0
          0.026 -0.00325 0.0
          0.0247 -0.00325 0.0
          0.0234 -0.00325 0.0
          0.0221 -0.00325 0.0
          0.0208 -0.00325 0.0
          0.0195 -0.00325 0.0
          0.0182 -0.00325 0.0
          0.0169 -0.00325 0.0
          0.0156 -0.00325 0.0
          0.0143 -0.00325 0.0
          0.013 -0.00325 0.0
          0.0117 -0.00325 0.0
          0.0104 -0.00325 0.0
          0.0091 -0.00325 0.0
          0.0078 -0.00325 0.0
          0.0065 -0.00325 0.0
          0.0052 -0.00325 0.0
          0.0039 -0.00325 0.0
          0.0026 -0.00325 0.0
          0.0013 -0.00325 0.0
          0 -0.00325 0.0
          0.039 -0.00455 0.0
          0.0377 -0.00455 0.0
          0.0364 -0.00455 0.0
          0.0351 -0.00455 0.0
          0.0338 -0.00455 0.0
          0.0325 -0.00455 0.0
          0.0312 -0.00455 0.0
          0.0299 -0.00455 0.0
          0.0286 -0.00455 0.0
          0.0273 -0.00455 0.0
          0.026 -0.00455 0.0
          0.0247 -0.00455 0.0
          0.0234 -0.00455 0.0
          0.0221 -0.00455 0.0
          0.0208 -0.00455 0.0
          0.0195 -0.00455 0.0
          0.0182 -0.00455 0.0
          0.0169 -0.00455 0.0
          0.0156 -0.00455 0.0
          0.0143 -0.00455 0.0
          0.013 -0.00455 0.0
          0.0117 -0.00455 0.0
          0.0104 -0.00455 0.0
          0.0091 -0.00455 0.0
          0.0078 -0.00455 0.0
          0.0065 -0.00455 0.0
          0.0052 -0.00455 0.0
          0.0039 -0.00455 0.0
          0.0026 -0.00455 0.0
          0.0013 -0.00455 0.0
          0 -0.00455 0.0
          0.039 -0.00585 0.0
          0.0377 -0.00585 0.0
          0.0364 -0.00585 0.0
          0.0351 -0.00585 0.0
          0.0338 -0.00585 0.0
          0.0325 -0.00585 0.0
          0.0312 -0.00585 0.0
          0.0299 -0.00585 0.0
          0.0286 -0.00585 0.0
          0.0273 -0.00585 0.0
          0.026 -0.00585 0.0
          0.0247 -0.00585 0.0
          0.0234 -0.00585 0.0
          0.0221 -0.00585 0.0
          0.0208 -0.00585 0.0
          0.0195 -0.00585 0.0
          0.0182 -0.00585 0.0
          0.0169 -0.00585 0.0
          0.0156 -0.00585 0.0
          0.0143 -0.00585 0.0
          0.013 -0.00585 0.0
          0.0117 -0.00585 0.0
          0.0104 -0.00585 0.0
          0.0091 -0.00585 0.0
          0.0078 -0.00585 0.0
          0.0065 -0.00585 0.0
          0.0052 -0.00585 0.0
          0.0039 -0.00585 0.0
          0.0026 -0.00585 0.0
          0.0013 -0.00585 0.0
          0 -0.00585 0.0
          0.039 -0.00715 0.0
          0.0377 -0.00715 0.0
          0.0364 -0.00715 0.0
          0.0351 -0.00715 0.0
          0.0338 -0.00715 0.0
          0.0325 -0.00715 0.0
          0.0312 -0.00715 0.0
          0.0299 -0.00715 0.0
          0.0286 -0.00715 0.0
          0.0273 -0.00715 0.0
          0.026 -0.00715 0.0
          0.0247 -0.00715 0.0
          0.0234 -0.00715 0.0
          0.0221 -0.00715 0.0
          0.0208 -0.00715 0.0
          0.0195 -0.00715 0.0
          0.0182 -0.00715 0.0
          0.0169 -0.00715 0.0
          0.0156 -0.00715 0.0
          0.0143 -0.00715 0.0
          0.013 -0.00715 0.0
          0.0117 -0.00715 0.0
          0.0104 -0.00715 0.0
          0.0091 -0.00715 0.0
          0.0078 -0.00715 0.0
          0.0065 -0.00715 0.0
          0.0052 -0.00715 0.0
          0.0039 -0.00715 0.0
          0.0026 -0.00715 0.0
          0.0013 -0.00715 0.0
          0 -0.00715 0.0
          0.039 -0.00845 0.0
          0.0377 -0.00845 0.0
          0.0364 -0.00845 0.0
          0.0351 -0.00845 0.0
          0.0338 -0.00845 0.0
          0.0325 -0.00845 0.0
          0.0312 -0.00845 0.0
          0.0299 -0.00845 0.0
          0.0286 -0.00845 0.0
          0.0273 -0.00845 0.0
          0.026 -0.00845 0.0
          0.0247 -0.00845 0.0
          0.0234 -0.00845 0.0
          0.0221 -0.00845 0.0
          0.0208 -0.00845 0.0
          0.0195 -0.00845 0.0
          0.0182 -0.00845 0.0
          0.0169 -0.00845 0.0
          0.0156 -0.00845 0.0
          0.0143 -0.00845 0.0
          0.013 -0.00845 0.0
          0.0117 -0.00845 0.0
          0.0104 -0.00845 0.0
          0.0091 -0.00845 0.0
          0.0078 -0.00845 0.0
          0.0065 -0.00845 0.0
          0.0052 -0.00845 0.0
          0.0039 -0.00845 0.0
          0.0026 -0.00845 0.0
          0.0013 -0.00845 0.0
          0 -0.00845 0.0
          0.039 -0.00975 0.0
          0.0377 -0.00975 0.0
          0.0364 -0.00975 0.0
          0.0351 -0.00975 0.0
          0.0338 -0.00975 0.0
          0.0325 -0.00975 0.0
          0.0312 -0.00975 0.0
          0.0299 -0.00975 0.0
          0.0286 -0.00975 0.0
          0.0273 -0.00975 0.0
          0.026 -0.00975 0.0
          0.0247 -0.00975 0.0
          0.0234 -0.00975 0.0
          0.0221 -0.00975 0.0
          0.0208 -0.00975 0.0
          0.0195 -0.00975 0.0
          0.0182 -0.00975 0.0
          0.0169 -0.00975 0.0
          0.0156 -0.00975 0.0
          0.0143 -0.00975 0.0
          0.013 -0.00975 0.0
          0.0117 -0.00975 0.0
          0.0104 -0.00975 0.0
          0.0091 -0.00975 0.0
          0.0078 -0.00975 0.0
          0.0065 -0.00975 0.0
          0.0052 -0.00975 0.0
          0.0039 -0.00975 0.0
          0.0026 -0.00975 0.0
          0.0013 -0.00975 0.0
          0 -0.00975 0.0
          0.039 -0.01105 0.0
          0.0377 -0.01105 0.0
          0.0364 -0.01105 0.0
          0.0351 -0.01105 0.0
          0.0338 -0.01105 0.0
          0.0325 -0.01105 0.0
          0.0312 -0.01105 0.0
          0.0299 -0.01105 0.0
          0.0286 -0.01105 0.0
          0.0273 -0.01105 0.0
          0.026 -0.01105 0.0
          0.0247 -0.01105 0.0
          0.0234 -0.01105 0.0
          0.0221 -0.01105 0.0
          0.0208 -0.01105 0.0
          0.0195 -0.01105 0.0
          0.0182 -0.01105 0.0
          0.0169 -0.01105 0.0
          0.0156 -0.01105 0.0
          0.0143 -0.01105 0.0
          0.013 -0.01105 0.0
          0.0117 -0.01105 0.0
          0.0104 -0.01105 0.0
          0.0091 -0.01105 0.0
          0.0078 -0.01105 0.0
          0.0065 -0.01105 0.0
          0.0052 -0.01105 0.0
          0.0039 -0.01105 0.0
          0.0026 -0.01105 0.0
          0.0013 -0.01105 0.0
          0 -0.01105 0.0
          0.039 -0.01235 0.0
          0.0377 -0.01235 0.0
          0.0364 -0.01235 0.0
          0.0351 -0.01235 0.0
          0.0338 -0.01235 0.0
          0.0325 -0.01235 0.0
          0.0312 -0.01235 0.0
          0.0299 -0.01235 0.0
          0.0286 -0.01235 0.0
          0.0273 -0.01235 0.0
          0.026 -0.01235 0.0
          0.0247 -0.01235 0.0
          0.0234 -0.01235 0.0
          0.0221 -0.01235 0.0
          0.0208 -0.01235 0.0
          0.0195 -0.01235 0.0
          0.0182 -0.01235 0.0
          0.0169 -0.01235 0.0
          0.0156 -0.01235 0.0
          0.0143 -0.01235 0.0
          0.013 -0.01235 0.0
          0.0117 -0.01235 0.0
          0.0104 -0.01235 0.0
          0.0091 -0.01235 0.0
          0.0078 -0.01235 0.0
          0.0065 -0.01235 0.0
          0.0052 -0.01235 0.0
          0.0039 -0.01235 0.0
          0.0026 -0.01235 0.0
          0.0013 -0.01235 0.0
          0 -0.01235 0.0
          0.039 -0.01365 0.0
          0.0377 -0.01365 0.0
          0.0364 -0.01365 0.0
          0.0351 -0.01365 0.0
          0.0338 -0.01365 0.0
          0.0325 -0.01365 0.0
          0.0312 -0.01365 0.0
          0.0299 -0.01365 0.0
          0.0286 -0.01365 0.0
          0.0273 -0.01365 0.0
          0.026 -0.01365 0.0
          0.0247 -0.01365 0.0
          0.0234 -0.01365 0.0
          0.0221 -0.01365 0.0
          0.0208 -0.01365 0.0
          0.0195 -0.01365 0.0
          0.0182 -0.01365 0.0
          0.0169 -0.01365 0.0
          0.0156 -0.01365 0.0
          0.0143 -0.01365 0.0
          0.013 -0.01365 0.0
          0.0117 -0.01365 0.0
          0.0104 -0.01365 0.0
          0.0091 -0.01365 0.0
          0.0078 -0.01365 0.0
          0.0065 -0.01365 0.0
          0.0052 -0.01365 0.0
          0.0039 -0.01365 0.0
          0.0026 -0.01365 0.0
          0.0013 -0.01365 0.0
          0 -0.01365 0.0
          0.039 -0.01495 0.0
          0.0377 -0.01495 0.0
          0.0364 -0.01495 0.0
          0.0351 -0.01495 0.0
          0.0338 -0.01495 0.0
          0.0325 -0.01495 0.0
          0.0312 -0.01495 0.0
          0.0299 -0.01495 0.0
          0.0286 -0.01495 0.0
          0.0273 -0.01495 0.0
          0.026 -0.01495 0.0
          0.0247 -0.01495 0.0
          0.0234 -0.01495 0.0
          0.0221 -0.01495 0.0