<?xml version="1.0"?>
<VTKFile type="UnstructuredGrid" version="0.1" byte_order="LittleEndian">
  <UnstructuredGrid>
    <Piece NumberOfPoints="961" NumberOfCells="900">
      <PointData Scalars="Temperature">
        <DataArray type="Float32" Name="Temperature" format="ascii">
          21.0028
          21.047
          21.0928
          21.1383
          21.1766
          21.2018
          21.2119
          21.212
          21.2097
          21.211
          21.2162
          21.221
          21.2213
          21.2173
          21.2131
          21.2133
          21.2177
          21.222
          21.2218
          21.217
          21.212
          21.2108
          21.2134
          21.2138
          21.2049
          21.1821
          21.1478
          21.108
          21.0694
          21.0343
          21.0021
          21.0456
          21.7563
          22.518
          23.2813
          23.9422
          24.3564
          24.5073
          24.4748
          24.4157
          24.437
          24.5418
          24.6401
          24.6446
          24.5576
          24.4706
          24.4734
          24.5652
          24.6553
          24.6525
          24.5554
          24.4523
          24.4337
          24.4968
          24.5364
          24.4037
          24.0276
          23.4326
          22.7618
          22.1186
          21.5549
          21.0334
          21.0848
          22.41
          23.8506
          25.57
          26.9659
          27.8521
          27.999
          27.7555
          27.4932
          27.5381
          27.876
          28.2007
          28.205
          27.8993
          27.5949
          27.6016
          27.9161
          28.2278
          28.2251
          27.9016
          27.5664
          27.527
          27.7962
          28.0487
          27.9194
          27.1019
          25.833
          24.3021
          23.0858
          22.034
          21.0623
          21.1173
          22.9501
          24.96
          27.3639
          31.6852
          31.6857
          31.6858
          31.6856
          29.7935
          29.8552
          31.9029
          31.9031
          31.9031
          31.9029
          29.9269
          29.9369
          31.9396
          31.9398
          31.9398
          31.9396
          29.8928
          29.8388
          31.7493
          31.7495
          31.7494
          31.7489
          27.7108
          25.5859
          23.8937
          22.4384
          21.0867
          21.141
          23.3382
          25.7019
          28.5012
          31.6864
          31.6866
          31.6867
          31.6867
          31.1378
          31.2102
          31.9039
          31.9039
          31.9039
          31.9039
          31.2887
          31.3009
          31.9406
          31.9407
          31.9407
          31.9406
          31.2531
          31.1897
          31.7503
          31.7504
          31.7503
          31.7501
          28.9085
          26.4669
          24.494
          22.7475
          21.1056
          21.1559
          23.5738
          26.1095
          28.8265
          31.6885
          31.6886
          31.6887
          31.6887
          31.563
          31.6353
          31.9059
          31.9059
          31.9059
          31.9059
          31.718
          31.7303
          31.9426
          31.9426
          31.9426
          31.9426
          31.6802
          31.6168
          31.7524
          31.7524
          31.7523
          31.7522
          29.2861
          26.9794
          24.8853
          22.9604
          21.1188
          21.164
          23.6968
          26.2869
          28.9588
          31.6916
          31.6918
          31.6919
          31.6919
          31.6989
          31.7712
          31.9089
          31.9089
          31.9089
          31.9089
          31.8551
          31.8674
          31.9456
          31.9456
          31.9456
          31.9456
          31.8166
          31.7532
          31.7555
          31.7555
          31.7554
          31.7553
          29.4572
          27.2323
          25.1147
          23.0931
          21.1272
          21.1679
          23.754
          26.3669
          29.0172
          31.6959
          31.696
          31.6961
          31.6961
          31.7447
          31.8169
          31.9129
          31.9129
          31.9129
          31.9129
          31.9012
          31.9135
          31.9496
          31.9496
          31.9496
          31.9496
          31.8625
          31.7992
          31.7597
          31.7597
          31.7596
          31.7595
          29.5426
          27.3633
          25.2401
          23.1699
          21.1321
          21.1697
          23.7806
          26.4041
          29.0454
          31.7012
          31.7013
          31.7014
          31.7014
          31.763
          31.8352
          31.918
          31.918
          31.918
          31.918
          31.9195
          31.9317
          31.9547
          31.9547
          31.9547
          31.9547
          31.8808
          31.8176
          31.765
          31.765
          31.7649
          31.7648
          29.5885
          27.4332
          25.3082
          23.2125
          21.1349
          21.1705
          23.7934
          26.4226
          29.0609
          31.7076
          31.7077
          31.7078
          31.7078
          31.7734
          31.8455
          31.9241
          31.9241
          31.9241
          31.9241
          31.9298
          31.942
          31.9608
          31.9608
          31.9608
          31.9608
          31.8911
          31.828
          31.7714
          31.7713
          31.7713
          31.7712
          29.6152
          27.4719
          25.3458
          23.236
          21.1364
          21.171
          23.8003
          26.4331
          29.0713
          31.7151
          31.7152
          31.7153
          31.7153
          31.7821
          31.854
          31.9312
          31.9312
          31.9312
          31.9312
          31.9382
          31.9504
          31.968
          31.968
          31.968
          31.968
          31.8996
          31.8366
          31.7788
          31.7788
          31.7787
          31.7786
          29.6325
          27.4947
          25.3673
          23.2494
          21.1373
          21.1713
          23.8048
          26.4405
          29.0798
          31.7236
          31.7238
          31.7239
          31.7239
          31.7909
          31.8627
          31.9394
          31.9394
          31.9394
          31.9394
          31.9468
          31.959
          31.9761
          31.9761
          31.9761
          31.9761
          31.9083
          31.8454
          31.7873
          31.7873
          31.7872
          31.7871
          29.6453
          27.5096
          25.3806
          23.2575
          21.1378
          21.1715
          23.8083
          26.4467
          29.088
          31.7333
          31.7334
          31.7335
          31.7335
          31.8005
          31.8722
          31.9486
          31.9486
          31.9486
          31.9486
          31.9561
          31.9683
          31.9853
          31.9853
          31.9853
          31.9853
          31.9178
          31.855
          31.7969
          31.7968
          31.7968
          31.7967
          29.6562
          27.5207
          25.3899
          23.2629
          21.1382
          21.1717
          23.8116
          26.4528
          29.0966
          31.744
          31.7441
          31.7442
          31.7443
          31.8111
          31.8826
          31.9588
          31.9588
          31.9588
          31.9588
          31.9664
          31.9786
          31.9956
          31.9956
          31.9956
          31.9956
          31.9282
          31.8655
          31.8075
          31.8075
          31.8074
          31.8073
          29.6666
          27.5302
          25.3973
          23.2671
          21.1384
          21.1719
          23.8149
          26.4591
          29.1057
          31.7558
          31.756
          31.756
          31.7561
          31.8228
          31.8941
          31.9701
          31.9701
          31.9701
          31.9701
          31.9777
          31.9899
          32.0069
          32.0069
          32.0069
          32.0068
          31.9396
          31.8771
          31.8192
          31.8192
          31.8191
          31.819
          29.6774
          27.5394
          25.4043
          23.271
          21.1387
          21.1721
          23.8185
          26.466
          29.1157
          31.7687
          31.7688
          31.7689
          31.769
          31.8354
          31.9066
          31.9824
          31.9824
          31.9824
          31.9824
          31.99
          32.0022
          32.0192
          32.0192
          32.0192
          32.0192
          31.9521
          31.8897
          31.832
          31.832
          31.8319
          31.8318
          29.689
          27.5494
          25.4117
          23.2751
          21.1389
          21.1724
          23.8226
          26.4737
          29.1266
          31.7827
          31.7828
          31.7829
          31.7829
          31.8492
          31.9201
          31.9957
          31.9957
          31.9957
          31.9957
          32.0033
          32.0155
          32.0325
          32.0325
          32.0325
          32.0325
          31.9656
          31.9034
          31.8459
          31.8458
          31.8458
          31.8456
          29.7021
          27.5609
          25.4206
          23.2801
          21.1393
          21.1727
          23.8274
          26.4825
          29.1388
          31.7977
          31.7979
          31.7979
          31.798
          31.864
          31.9347
          32.0101
          32.0101
          32.0101
          32.0101
          32.0177
          32.0299
          32.0469
          32.0469
          32.0469
          32.0469
          31.9802
          31.9182
          31.8608
          31.8608
          31.8607
          31.8606
          29.7174
          27.5755
          25.4322
          23.2868
          21.1397
          21.1731
          23.8336
          26.4934
          29.1528
          31.8139
          31.814
          31.8141
          31.8141
          31.8799
          31.9504
          32.0255
          32.0255
          32.0255
          32.0255
          32.0331
          32.0453
          32.0623
          32.0623
          32.0623
          32.0623
          31.9958
          31.934
          31.8768
          31.8768
          31.8767
          31.8766
          29.7365
          27.5953
          25.449
          23.2967
          21.1403
          21.1737
          23.8425
          26.5081
          29.17
          31.8311
          31.8312
          31.8313
          31.8313
          31.8969
          31.9671
          32.0419
          32.0419
          32.0419
          32.0419
          32.0495
          32.0618
          32.0787
          32.0787
          32.0787
          32.0787
          32.0124
          31.9508
          31.8939
          31.8938
          31.8938
          31.8936
          29.7619
          27.6247
          25.4754
          23.3127
          21.1414
          21.1743
          23.8573
          26.5309
          29.1932
          31.8494
          31.8495
          31.8496
          31.8496
          31.9149
          31.9848
          32.0593
          32.0594
          32.0594
          32.0594
          32.067
          32.0793
          32.0962
          32.0962
          32.0962
          32.0961
          32.0301
          31.9687
          31.912
          31.912
          31.9119
          31.9118
          29.7986
          27.6718
          25.5195
          23.3403
          21.1429
          21.1777
          23.8844
          26.5715
          29.2291
          31.8687
          31.8689
          31.869
          31.869
          31.934
          32.0036
          32.0778
          32.0778
          32.0779
          32.0779
          32.0856
          32.0979
          32.1147
          32.1147
          32.1146
          32.1146
          32.0489
          31.9877
          31.9312
          31.9312
          31.9311
          31.931
          29.8557
          27.7518
          25.5974
          23.3889
          21.1476
          21.1747
          23.9427
          26.6502
          29.2928
          31.8891
          31.8893
          31.8895
          31.8895
          31.9542
          32.0234
          32.0973
          32.0973
          32.0974
          32.0974
          32.1054
          32.1177
          32.1342
          32.1342
          32.1342
          32.1341
          32.0687
          32.0079
          31.9515
          31.9515
          31.9513
          31.9512
          29.95
          27.8935
          25.7385
          23.4823
          21.1467
          21.2134
          24.0543
          26.8202
          29.4159
          31.9105
          31.9108
          31.9111
          31.9112
          31.9755
          32.0443
          32.1176
          32.1178
          32.118
          32.1182
          32.1268
          32.139
          32.1549
          32.1548
          32.1547
          32.1546
          32.0897
          32.0293
          31.973
          31.9729
          31.9726
          31.9724
          30.1109
          28.1478
          26.0068
          23.6471
          21.1889
          21.0968
          24.3705
          27.1704
          29.6741
          31.9327
          31.9332
          31.9339
          31.9342
          31.9984
          32.0663
          32.1387
          32.1391
          32.1399
          32.1403
          32.1507
          32.1628
          32.1768
          32.1766
          32.1761
          32.1758
          32.1121
          32.0524
          31.9959
          31.9955
          31.9948
          31.9944
          30.3799
          28.612
          26.5016
          24.0395
          21.0764
          21.7459
          24.8357
          28.0324
          30.1697
          31.955
          31.9562
          31.9582
          31.9594
          32.0237
          32.0897
          32.1595
          32.1608
          32.1633
          32.1647
          32.1796
          32.1914
          32.2006
          32.1997
          32.1981
          32.1973
          32.1367
          32.0784
          32.0208
          32.0197
          32.0176
          32.0164
          30.7969
          29.4031
          27.5607
          24.6047
          21.7342
          19.1922
          27.4177
          29.6656
          30.9661
          31.9755
          31.9782
          31.9856
          31.9883
          32.0555
          32.1147
          32.1779
          32.1812
          32.1903
          32.1935
          32.2198
          32.2303
          32.2276
          32.2255
          32.2197
          32.2176
          32.1648
          32.1122
          32.0497
          32.0469
          32.0394
          32.0366
          31.3676
          30.5805
          29.4387
          27.3156
          19.1768
          31.9459
          31.9611
          31.9725
          31.9831
          31.9903
          31.9969
          32.0113
          32.0396
          32.1013
          32.1446
          32.1824
          32.2002
          32.2183
          32.243
          32.2826
          32.2901
          32.2682
          32.2522
          32.2407
          32.2296
          32.2015
          32.1619
          32.1011
          32.0726
          32.0577
          32.0505
          32.0421
          32.0307
          32.0193
          32.0076
          31.9924
          31.952
          31.9626
          31.9733
          31.984
          31.9956
          32.0101
          32.0312
          32.0635
          32.1037
          32.1476
          32.1866
          32.22
          32.2478
          32.2733
          32.2924
          32.2998
          32.2943
          32.2809
          32.2637
          32.2396
          32.2068
          32.1655
          32.1254
          32.0926
          32.0708
          32.0554
          32.0428
          32.0312
          32.02
          32.0091
          31.9984
          31.9588
          31.9655
          31.9747
          31.986
          31.9998
          32.0176
          32.0414
          32.0724
          32.1102
          32.1533
          32.2017
          32.2463
          32.2798
          32.3047
          32.3211
          32.3279
          32.3249
          32.3132
          32.2931
          32.2634
          32.2209
          32.1747
          32.1351
          32.103
          32.0782
          32.0594
          32.0445
          32.0319
          32.021
          32.0119
          32.0052
          31.9638
          31.9667
          31.9753
          31.9868
          32.0013
          32.02
          32.0444
          32.0752
          32.1125
          32.1563
          32.2107
          32.262
          32.2973
          32.3224
          32.3384
          32.3452
          32.3426
          32.3309
          32.3101
          32.2784
          32.2299
          32.1783
          32.1384
          32.1061
          32.0807
          32.0609
          32.0452
          32.0323
          32.0215
          32.0131
          32.0102
        </DataArray>
      </PointData>
      <CellData>
      </CellData>
      <Points>
        <DataArray type="Float32" NumberOfComponents="3" format="ascii">
          0.039 0.00195 0.0
          0.0377 0.00195 0.0
          0.0364 0.00195 0.0
          0.0351 0.00195 0.0
          0.0338 0.00195 0.0
          0.0325 0.00195 0.0
          0.0312 0.00195 0.0
          0.0299 0.00195 0.0
          0.0286 0.00195 0.0
          0.0273 0.00195 0.0
          0.026 0.00195 0.0
          0.0247 0.00195 0.0
          0.0234 0.00195 0.0
          0.0221 0.00195 0.0
          0.0208 0.00195 0.0
          0.0195 0.00195 0.0
          0.0182 0.00195 0.0
          0.0169 0.00195 0.0
          0.0156 0.00195 0.0
          0.0143 0.00195 0.0
          0.013 0.00195 0.0
          0.0117 0.00195 0.0
          0.0104 0.00195 0.0
          0.0091 0.00195 0.0
          0.0078 0.00195 0.0
          0.0065 0.00195 0.0
          0.0052 0.00195 0.0
          0.0039 0.00195 0.0
          0.0026 0.00195 0.0
          0.0013 0.00195 0.0
          0 0.00195 0.0
          0.039 0.00065 0.0
          0.0377 0.00065 0.0
          0.0364 0.00065 0.0
          0.0351 0.00065 0.0
          0.0338 0.00065 0.0
          0.0325 0.00065 0.0
          0.0312 0.00065 0.0
          0.0299 0.00065 0.0
          0.0286 0.00065 0.0
          0.0273 0.00065 0.0
          0.026 0.00065 0.0
          0.0247 0.00065 0.0
          0.0234 0.00065 0.0
          0.0221 0.00065 0.0
          0.0208 0.00065 0.0
          0.0195 0.00065 0.0
          0.0182 0.00065 0.0
          0.0169 0.00065 0.0
          0.0156 0.00065 0.0
          0.0143 0.00065 0.0
          0.013 0.00065 0.0
          0.0117 0.00065 0.0
          0.0104 0.00065 0.0
          0.0091 0.00065 0.0
          0.0078 0.00065 0.0
          0.0065 0.00065 0.0
          0.0052 0.00065 0.0
          0.0039 0.00065 0.0
          0.0026 0.00065 0.0
          0.0013 0.00065 0.0
          0 0.00065 0.0
          0.039 -0.00065 0.0
          0.0377 -0.00065 0.0
          0.0364 -0.00065 0.0
          0.0351 -0.00065 0.0
          0.0338 -0.00065 0.0
          0.0325 -0.00065 0.0
          0.0312 -0.00065 0.0
          0.0299 -0.00065 0.0
          0.0286 -0.00065 0.0
          0.0273 -0.00065 0.0
          0.026 -0.00065 0.0
          0.0247 -0.00065 0.0
          0.0234 -0.00065 0.0
          0.0221 -0.00065 0.0
          0.0208 -0.00065 0.0
          0.0195 -0.00065 0.0
          0.0182 -0.00065 0.0
          0.0169 -0.00065 0.0
          0.0156 -0.00065 0.0
          0.0143 -0.00065 0.0
          0.013 -0.00065 0.0
          0.0117 -0.00065 0.0
          0.0104 -0.00065 0.0
          0.0091 -0.00065 0.0
          0.0078 -0.00065 0.0
          0.0065 -0.00065 0.0
          0.0052 -0.00065 0.0
          0.0039 -0.00065 0.0
          0.0026 -0.00065 0.0
          0.0013 -0.00065 0.0
          0 -0.00065 0.0
          0.039 -0.00195 0.0
          0.0377 -0.00195 0.0
          0.0364 -0.00195 0.0
          0.0351 -0.00195 0.0
          0.0338 -0.00195 0.0
          0.0325 -0.00195 0.0
          0.0312 -0.00195 0.0
          0.0299 -0.00195 0.0
          0.0286 -0.00195 0.0
          0.0273 -0.00195 0.0
          0.026 -0.00195 0.0
          0.0247 -0.00195 0.0
          0.0234 -0.00195 0.0
          0.0221 -0.00195 0.0
          0.0208 -0.00195 0.0
          0.0195 -0.00195 0.0
          0.0182 -0.00195 0.0
          0.0169 -0.00195 0.0
          0.0156 -0.00195 0.0
          0.0143 -0.00195 0.0
          0.013 -0.00195 0.0
          0.0117 -0.00195 0.0
          0.0104 -0.00195 0.0
          0.0091 -0.00195 0.0
          0.0078 -0.00195 0.0
          0.0065 -0.00195 0.0
          0.0052 -0.00195 0.0
          0.0039 -0.00195 0.0
          0.0026 -0.00195 0.0
          0.0013 -0.00195 0.0
          0 -0.00195 0.0
          0.039 -0.00325 0.0
          0.0377 -0.00325 0.0
          0.0364 -0.00325 0.0
          0.0351 -0.00325 0.0
          0.0338 -0.00325 0.0
          0.0325 -0.00325 0.0
          0.0312 -0.00325 0.0
          0.0299 -0.00325 0.0
          0.0286 -0.00325 0.0
          0.0273 -0.00325 0.0
          0.026 -0.00325 0.0
          0.0247 -0.00325 0.0
          0.0234 -0.00325 0.0
          0.0221 -0.00325 0.0
          0.0208 -0.00325 0.0
          0.0195 -0.00325 0.0
          0.0182 -0.00325 0.0
          0.0169 -0.00325 0.0
          0.0156 -0.00325 0.0
          0.0143 -0.00325 0.0
          0.013 -0.00325 0.0
          0.0117 -0.00325 0.0
          0.0104 -0.00325 0.0
          0.0091 -0.00325 0.0
          0.0078 -0.00325 0.0
          0.0065 -0.00325 0.0
          0.0052 -0.00325 0.0
          0.0039 -0.00325 0.0
          0.0026 -0.00325 0.0
          0.0013 -0.00325 0.0
          0 -0.00325 0.0
          0.039 -0.00455 0.0
          0.0377 -0.00455 0.0
          0.0364 -0.00455 0.0
          0.0351 -0.00455 0.0
          0.0338 -0.00455 0.0
          0.0325 -0.00455 0.0
          0.0312 -0.00455 0.0
          0.0299 -0.00455 0.0
          0.0286 -0.00455 0.0
          0.0273 -0.00455 0.0
          0.026 -0.00455 0.0
          0.0247 -0.00455 0.0
          0.0234 -0.00455 0.0
          0.0221 -0.00455 0.0
          0.0208 -0.00455 0.0
          0.0195 -0.00455 0.0
          0.0182 -0.00455 0.0
          0.0169 -0.00455 0.0
          0.0156 -0.00455 0.0
          0.0143 -0.00455 0.0
          0.013 -0.00455 0.0
          0.0117 -0.00455 0.0
          0.0104 -0.00455 0.0
          0.0091 -0.00455 0.0
          0.0078 -0.00455 0.0
          0.0065 -0.00455 0.0
          0.0052 -0.00455 0.0
          0.0039 -0.00455 0.0
          0.0026 -0.00455 0.0
          0.0013 -0.00455 0.0
          0 -0.00455 0.0
          0.039 -0.00585 0.0
          0.0377 -0.00585 0.0
          0.0364 -0.00585 0.0
          0.0351 -0.00585 0.0
          0.0338 -0.00585 0.0
          0.0325 -0.00585 0.0
          0.0312 -0.00585 0.0
          0.0299 -0.00585 0.0
          0.0286 -0.00585 0.0
          0.0273 -0.00585 0.0
          0.026 -0.00585 0.0
          0.0247 -0.00585 0.0
          0.0234 -0.00585 0.0
          0.0221 -0.00585 0.0
          0.0208 -0.00585 0.0
          0.0195 -0.00585 0.0
          0.0182 -0.00585 0.0
          0.0169 -0.00585 0.0
          0.0156 -0.00585 0.0
          0.0143 -0.00585 0.0
          0.013 -0.00585 0.0
          0.0117 -0.00585 0.0
          0.0104 -0.00585 0.0
          0.0091 -0.00585 0.0
          0.0078 -0.00585 0.0
          0.0065 -0.00585 0.0
          0.0052 -0.00585 0.0
          0.0039 -0.00585 0.0
          0.0026 -0.00585 0.0
          0.0013 -0.00585 0.0
          0 -0.00585 0.0
          0.039 -0.00715 0.0
          0.0377 -0.00715 0.0
          0.0364 -0.00715 0.0
          0.0351 -0.00715 0.0
          0.0338 -0.00715 0.0
          0.0325 -0.00715 0.0
          0.0312 -0.00715 0.0
          0.0299 -0.00715 0.0
          0.0286 -0.00715 0.0
          0.0273 -0.00715 0.0
          0.026 -0.00715 0.0
          0.0247 -0.00715 0.0
          0.0234 -0.00715 0.0
          0.0221 -0.00715 0.0
          0.0208 -0.00715 0.0
          0.0195 -0.00715 0.0
          0.0182 -0.00715 0.0
          0.0169 -0.00715 0.0
          0.0156 -0.00715 0.0
          0.0143 -0.00715 0.0
          0.013 -0.00715 0.0
          0.0117 -0.00715 0.0
          0.0104 -0.00715 0.0
          0.0091 -0.00715 0.0
          0.0078 -0.00715 0.0
          0.0065 -0.00715 0.0
          0.0052 -0.00715 0.0
          0.0039 -0.00715 0.0
          0.0026 -0.00715 0.0
          0.0013 -0.00715 0.0
          0 -0.00715 0.0
          0.039 -0.00845 0.0
          0.0377 -0.00845 0.0
          0.0364 -0.00845 0.0
          0.0351 -0.00845 0.0
          0.0338 -0.00845 0.0
          0.0325 -0.00845 0.0
          0.0312 -0.00845 0.0
          0.0299 -0.00845 0.0
          0.0286 -0.00845 0.0
          0.0273 -0.00845 0.0
          0.026 -0.00845 0.0
          0.0247 -0.00845 0.0
          0.0234 -0.00845 0.0
          0.0221 -0.00845 0.0
          0.0208 -0.00845 0.0
          0.0195 -0.00845 0.0
          0.0182 -0.00845 0.0
          0.0169 -0.00845 0.0
          0.0156 -0.00845 0.0
          0.0143 -0.00845 0.0
          0.013 -0.00845 0.0
          0.0117 -0.00845 0.0
          0.0104 -0.00845 0.0
          0.0091 -0.00845 0.0
          0.0078 -0.00845 0.0
          0.0065 -0.00845 0.0
          0.0052 -0.00845 0.0
          0.0039 -0.00845 0.0
          0.0026 -0.00845 0.0
          0.0013 -0.00845 0.0
          0 -0.00845 0.0
          0.039 -0.00975 0.0
          0.0377 -0.00975 0.0
          0.0364 -0.00975 0.0
          0.0351 -0.00975 0.0
          0.0338 -0.00975 0.0
          0.0325 -0.00975 0.0
          0.0312 -0.00975 0.0
          0.0299 -0.00975 0.0
          0.0286 -0.00975 0.0
          0.0273 -0.00975 0.0
          0.026 -0.00975 0.0
          0.0247 -0.00975 0.0
          0.0234 -0.00975 0.0
          0.0221 -0.00975 0.0
          0.0208 -0.00975 0.0
          0.0195 -0.00975 0.0
          0.0182 -0.00975 0.0
          0.0169 -0.00975 0.0
          0.0156 -0.00975 0.0
          0.0143 -0.00975 0.0
          0.013 -0.00975 0.0
          0.0117 -0.00975 0.0
          0.0104 -0.00975 0.0
          0.0091 -0.00975 0.0
          0.0078 -0.00975 0.0
          0.0065 -0.00975 0.0
          0.0052 -0.00975 0.0
          0.0039 -0.00975 0.0
          0.0026 -0.00975 0.0
          0.0013 -0.00975 0.0
          0 -0.00975 0.0
          0.039 -0.01105 0.0
          0.0377 -0.01105 0.0
          0.0364 -0.01105 0.0
          0.0351 -0.01105 0.0
          0.0338 -0.01105 0.0
          0.0325 -0.01105 0.0
          0.0312 -0.01105 0.0
          0.0299 -0.01105 0.0
          0.0286 -0.01105 0.0
          0.0273 -0.01105 0.0
          0.026 -0.01105 0.0
          0.0247 -0.01105 0.0
          0.0234 -0.01105 0.0
          0.0221 -0.01105 0.0
          0.0208 -0.01105 0.0
          0.0195 -0.01105 0.0
          0.0182 -0.01105 0.0
          0.0169 -0.01105 0.0
          0.0156 -0.01105 0.0
          0.0143 -0.01105 0.0
          0.013 -0.01105 0.0
          0.0117 -0.01105 0.0
          0.0104 -0.01105 0.0
          0.0091 -0.01105 0.0
          0.0078 -0.01105 0.0
          0.0065 -0.01105 0.0
          0.0052 -0.01105 0.0
          0.0039 -0.01105 0.0
          0.0026 -0.01105 0.0
          0.0013 -0.01105 0.0
          0 -0.01105 0.0
          0.039 -0.01235 0.0
          0.0377 -0.01235 0.0
          0.0364 -0.01235 0.0
          0.0351 -0.01235 0.0
          0.0338 -0.01235 0.0
          0.0325 -0.01235 0.0
          0.0312 -0.01235 0.0
          0.0299 -0.01235 0.0
          0.0286 -0.01235 0.0
          0.0273 -0.01235 0.0
          0.026 -0.01235 0.0
          0.0247 -0.01235 0.0
          0.0234 -0.01235 0.0
          0.0221 -0.01235 0.0
          0.0208 -0.01235 0.0
          0.0195 -0.01235 0.0
          0.0182 -0.01235 0.0
          0.0169 -0.01235 0.0
          0.0156 -0.01235 0.0
          0.0143 -0.01235 0.0
          0.013 -0.01235 0.0
          0.0117 -0.01235 0.0
          0.0104 -0.01235 0.0
          0.0091 -0.01235 0.0
          0.0078 -0.01235 0.0
          0.0065 -0.01235 0.0
          0.0052 -0.01235 0.0
          0.0039 -0.01235 0.0
          0.0026 -0.01235 0.0
          0.0013 -0.01235 0.0
          0 -0.01235 0.0
          0.039 -0.01365 0.0
          0.0377 -0.01365 0.0
          0.0364 -0.01365 0.0
          0.0351 -0.01365 0.0
          0.0338 -0.01365 0.0
          0.0325 -0.01365 0.0
          0.0312 -0.01365 0.0
          0.0299 -0.01365 0.0
          0.0286 -0.01365 0.0
          0.0273 -0.01365 0.0
          0.026 -0.01365 0.0
          0.0247 -0.01365 0.0
          0.0234 -0.01365 0.0
          0.0221 -0.01365 0.0
          0.0208 -0.01365 0.0
          0.0195 -0.01365 0.0
          0.0182 -0.01365 0.0
          0.0169 -0.01365 0.0
          0.0156 -0.01365 0.0
          0.0143 -0.01365 0.0
          0.013 -0.01365 0.0
          0.0117 -0.01365 0.0
          0.0104 -0.01365 0.0
          0.0091 -0.01365 0.0
          0.0078 -0.01365 0.0
          0.0065 -0.01365 0.0
          0.0052 -0.01365 0.0
          0.0039 -0.01365 0.0
          0.0026 -0.01365 0.0
          0.0013 -0.01365 0.0
          0 -0.01365 0.0
          0.039 -0.01495 0.0
          0.0377 -0.01495 0.0
          0.0364 -0.01495 0.0
          0.0351 -0.01495 0.0
          0.0338 -0.01495 0.0
          0.0325 -0.01495 0.0
          0.0312 -0.01495 0.0
          0.0299 -0.01495 0.0
          0.0286 -0.01495 0.0
          0.0273 -0.01495 0.0
          0.026 -0.01495 0.0
          0.0247 -0.01495 0.0
          0.0234 -0.01495 0.0
          0.0221 -0.01495 0.0