<?xml version="1.0"?>
<VTKFile type="UnstructuredGrid" version="0.1" byte_order="LittleEndian">
  <UnstructuredGrid>
    <Piece NumberOfPoints="961" NumberOfCells="900">
      <PointData Scalars="Temperature">
        <DataArray type="Float32" Name="Temperature" format="ascii">
          21.0013
          21.0214
          21.0422
          21.063
          21.0804
          21.092
          21.0967
          21.0969
          21.0962
          21.0973
          21.1
          21.1025
          21.1027
          21.1009
          21.0991
          21.0992
          21.1013
          21.1034
          21.1032
          21.1008
          21.0981
          21.0972
          21.0981
          21.0982
          21.094
          21.0835
          21.0677
          21.0495
          21.0318
          21.0157
          21.001
          21.0207
          21.3443
          21.6912
          22.0391
          22.3406
          22.53
          22.6002
          22.5887
          22.5674
          22.5843
          22.6388
          22.6881
          22.692
          22.6526
          22.6134
          22.6161
          22.6601
          22.7025
          22.7002
          22.6519
          22.5988
          22.5841
          22.6081
          22.6234
          22.5612
          22.3881
          22.1149
          21.8071
          21.5122
          21.254
          21.0153
          21.0386
          21.642
          22.2982
          23.0823
          23.7191
          24.124
          24.1924
          24.0871
          23.9785
          24.0165
          24.1853
          24.3429
          24.3467
          24.2058
          24.0663
          24.073
          24.2223
          24.369
          24.3668
          24.2102
          24.0436
          24.0102
          24.1242
          24.2352
          24.1746
          23.7987
          23.2158
          22.513
          21.9552
          21.4734
          21.0285
          21.0534
          21.888
          22.8038
          23.9002
          25.8736
          25.8739
          25.8739
          25.8738
          25.0335
          25.0876
          26.068
          26.0681
          26.0681
          26.068
          25.1514
          25.1613
          26.1041
          26.1043
          26.1043
          26.1041
          25.1238
          25.0765
          25.934
          25.9341
          25.9341
          25.9339
          24.0774
          23.1016
          22.3254
          21.6586
          21.0397
          21.0642
          22.0649
          23.1421
          24.4193
          25.8745
          25.8746
          25.8746
          25.8746
          25.6503
          25.7151
          26.0688
          26.0688
          26.0688
          26.0688
          25.7857
          25.7978
          26.1049
          26.105
          26.105
          26.1049
          25.7565
          25.6998
          25.9348
          25.9348
          25.9348
          25.9347
          24.6273
          23.5057
          22.6006
          21.8003
          21.0483
          21.071
          22.1725
          23.3283
          24.5683
          25.8764
          25.8765
          25.8765
          25.8765
          25.8471
          25.9118
          26.0707
          26.0707
          26.0707
          26.0707
          25.9867
          25.9987
          26.1068
          26.1068
          26.1068
          26.1068
          25.9551
          25.8985
          25.9367
          25.9367
          25.9367
          25.9366
          24.8012
          23.7412
          22.7803
          21.898
          21.0544
          21.0747
          22.2289
          23.41
          24.6297
          25.8795
          25.8795
          25.8796
          25.8796
          25.9113
          25.976
          26.0737
          26.0737
          26.0737
          26.0737
          26.0521
          26.0642
          26.1098
          26.1098
          26.1098
          26.1098
          26.0199
          25.9632
          25.9398
          25.9398
          25.9397
          25.9397
          24.8809
          23.8581
          22.886
          21.9591
          21.0583
          21.0765
          22.2556
          23.4475
          24.6581
          25.8837
          25.8837
          25.8838
          25.8838
          25.9346
          25.9993
          26.0778
          26.0778
          26.0778
          26.0778
          26.0758
          26.0879
          26.114
          26.114
          26.114
          26.114
          26.0434
          25.9867
          25.944
          25.944
          25.9439
          25.9439
          24.9218
          23.9194
          22.9443
          21.9947
          21.0606
          21.0774
          22.2684
          23.4659
          24.6731
          25.889
          25.8891
          25.8891
          25.8891
          25.9459
          26.0106
          26.0831
          26.0831
          26.0831
          26.0831
          26.0872
          26.0993
          26.1192
          26.1192
          26.1192
          26.1192
          26.0547
          25.9981
          25.9493
          25.9493
          25.9493
          25.9492
          24.9452
          23.9531
          22.9767
          22.0148
          21.0619
          21.0778
          22.2752
          23.4762
          24.6828
          25.8955
          25.8955
          25.8956
          25.8956
          25.9543
          26.0189
          26.0894
          26.0894
          26.0894
          26.0894
          26.0955
          26.1076
          26.1256
          26.1256
          26.1256
          26.1256
          26.063
          26.0064
          25.9558
          25.9557
          25.9557
          25.9557
          24.9602
          23.973
          22.9953
          22.0263
          21.0626
          21.0781
          22.2794
          23.4831
          24.6907
          25.9031
          25.9031
          25.9032
          25.9032
          25.9624
          26.027
          26.0969
          26.0969
          26.0969
          26.0969
          26.1036
          26.1156
          26.1331
          26.1331
          26.1331
          26.1331
          26.0711
          26.0146
          25.9634
          25.9633
          25.9633
          25.9633
          24.9715
          23.9859
          23.0069
          22.0333
          21.0631
          21.0783
          22.2827
          23.4889
          24.6982
          25.9118
          25.9119
          25.9119
          25.912
          25.9713
          26.0358
          26.1055
          26.1055
          26.1055
          26.1055
          26.1124
          26.1244
          26.1417
          26.1417
          26.1417
          26.1417
          26.08
          26.0234
          25.9721
          25.9721
          25.972
          25.972
          24.9812
          23.9957
          23.0149
          22.038
          21.0634
          21.0785
          22.2858
          23.4945
          24.7061
          25.9217
          25.9218
          25.9218
          25.9218
          25.9812
          26.0457
          26.1152
          26.1153
          26.1153
          26.1153
          26.1222
          26.1342
          26.1514
          26.1514
          26.1514
          26.1514
          26.0898
          26.0333
          25.9819
          25.9819
          25.9819
          25.9818
          24.9906
          24.004
          23.0214
          22.0417
          21.0636
          21.0787
          22.2889
          23.5004
          24.7147
          25.9328
          25.9328
          25.9329
          25.9329
          25.9922
          26.0566
          26.1261
          26.1261
          26.1261
          26.1261
          26.1331
          26.1451
          26.1623
          26.1623
          26.1623
          26.1623
          26.1007
          26.0443
          25.9929
          25.9929
          25.9929
          25.9928
          25.0003
          24.0121
          23.0273
          22.0449
          21.0638
          21.0789
          22.2922
          23.5068
          24.7239
          25.9449
          25.945
          25.945
          25.9451
          26.0043
          26.0686
          26.1381
          26.1381
          26.1381
          26.1381
          26.145
          26.1571
          26.1742
          26.1742
          26.1742
          26.1742
          26.1128
          26.0564
          26.0051
          26.0051
          26.005
          26.005
          25.0107
          24.0205
          23.0333
          22.0481
          21.064
          21.0791
          22.2958
          23.5137
          24.7341
          25.9582
          25.9583
          25.9583
          25.9584
          26.0176
          26.0818
          26.1512
          26.1512
          26.1512
          26.1512
          26.1581
          26.1702
          26.1873
          26.1873
          26.1873
          26.1873
          26.1259
          26.0696
          26.0184
          26.0183
          26.0183
          26.0183
          25.022
          24.0295
          23.0397
          22.0516
          21.0642
          21.0794
          22.2998
          23.5213
          24.7452
          25.9727
          25.9728
          25.9728
          25.9728
          26.0319
          26.0961
          26.1654
          26.1654
          26.1654
          26.1654
          26.1723
          26.1844
          26.2015
          26.2015
          26.2015
          26.2015
          26.1402
          26.0839
          26.0328
          26.0328
          26.0327
          26.0327
          25.0345
          24.0397
          23.0471
          22.0556
          21.0645
          21.0796
          22.3043
          23.5298
          24.7573
          25.9883
          25.9884
          25.9884
          25.9884
          26.0474
          26.1115
          26.1807
          26.1807
          26.1807
          26.1807
          26.1877
          26.1997
          26.2169
          26.2169
          26.2169
          26.2169
          26.1556
          26.0994
          26.0483
          26.0483
          26.0483
          26.0482
          25.0485
          24.0517
          23.0561
          22.0605
          21.0648
          21.08
          22.3096
          23.5395
          24.7708
          26.005
          26.0051
          26.0051
          26.0051
          26.0641
          26.1281
          26.1971
          26.1971
          26.1971
          26.1971
          26.2041
          26.2162
          26.2333
          26.2333
          26.2333
          26.2333
          26.1721
          26.116
          26.065
          26.065
          26.0649
          26.0649
          25.0648
          24.0666
          23.0677
          22.0671
          21.0652
          21.0804
          22.3163
          23.5514
          24.7863
          26.0229
          26.0229
          26.023
          26.023
          26.0818
          26.1457
          26.2147
          26.2147
          26.2147
          26.2147
          26.2217
          26.2338
          26.2509
          26.2509
          26.2509
          26.2509
          26.1898
          26.1338
          26.0828
          26.0828
          26.0828
          26.0827
          25.0847
          24.0864
          23.0841
          22.0767
          21.0658
          21.0809
          22.326
          23.5674
          24.805
          26.0419
          26.042
          26.042
          26.042
          26.1007
          26.1645
          26.2334
          26.2334
          26.2334
          26.2334
          26.2404
          26.2525
          26.2696
          26.2696
          26.2696
          26.2696
          26.2086
          26.1526
          26.1018
          26.1017
          26.1017
          26.1016
          25.1104
          24.115
          23.1092
          22.092
          21.0666
          21.0827
          22.3416
          23.5921
          24.8302
          26.062
          26.0621
          26.0622
          26.0622
          26.1208
          26.1844
          26.2532
          26.2532
          26.2532
          26.2532
          26.2603
          26.2724
          26.2894
          26.2894
          26.2894
          26.2894
          26.2285
          26.1727
          26.1218
          26.1218
          26.1218
          26.1217
          25.1462
          24.1595
          23.1506
          22.1173
          21.069
          21.0814
          22.3722
          23.6352
          24.869
          26.0833
          26.0834
          26.0835
          26.0835
          26.142
          26.2055
          26.274
          26.2741
          26.2742
          26.2742
          26.2816
          26.2936
          26.3104
          26.3104
          26.3103
          26.3103
          26.2496
          26.1939
          26.1431
          26.1431
          26.143
          26.1429
          25.2002
          24.2337
          23.2222
          22.164
          21.0688
          21.0999
          22.428
          23.7215
          24.9362
          26.1056
          26.1057
          26.1059
          26.1061
          26.1645
          26.2277
          26.2959
          26.2961
          26.2963
          26.2964
          26.3044
          26.3165
          26.3326
          26.3325
          26.3323
          26.3323
          26.2719
          26.2164
          26.1656
          26.1655
          26.1653
          26.1651
          25.2862
          24.3616
          23.3544
          22.2447
          21.0889
          21.045
          22.5806
          23.8933
          25.0677
          26.1288
          26.1291
          26.1297
          26.13
          26.1884
          26.251
          26.3186
          26.3189
          26.3197
          26.3201
          26.3299
          26.3418
          26.3561
          26.3558
          26.3553
          26.3551
          26.2958
          26.2407
          26.1895
          26.1892
          26.1885
          26.1882
          25.424
          24.5896
          23.5945
          22.4337
          21.0357
          21.3519
          22.8039
          24.3072
          25.3116
          26.1522
          26.1532
          26.155
          26.156
          26.2148
          26.2759
          26.3411
          26.3424
          26.3448
          26.3461
          26.3604
          26.372
          26.3815
          26.3806
          26.3791
          26.3783
          26.3218
          26.268
          26.2154
          26.2144
          26.2125
          26.2115
          25.6325
          24.9734
          24.1029
          22.7049
          21.3483
          20.1455
          24.0278
          25.0864
          25.6981
          26.1744
          26.1767
          26.1831
          26.1855
          26.2478
          26.3027
          26.3615
          26.3647
          26.3734
          26.3765
          26.4024
          26.4128
          26.41
          26.408
          26.4026
          26.4006
          26.3517
          26.303
          26.2449
          26.2425
          26.2359
          26.2334
          25.9146
          25.5417
          25.0012
          23.9957
          20.1338
          26.1722
          26.1796
          26.1857
          26.1916
          26.1929
          26.1967
          26.2094
          26.236
          26.2947
          26.3352
          26.3693
          26.3854
          26.4028
          26.4275
          26.4674
          26.4748
          26.4523
          26.4362
          26.4253
          26.4157
          26.3911
          26.3539
          26.2959
          26.2689
          26.2557
          26.2512
          26.2485
          26.2416
          26.2349
          26.2285
          26.221
          26.1751
          26.1804
          26.1863
          26.1925
          26.2
          26.2112
          26.2296
          26.2594
          26.2971
          26.3383
          26.375
          26.4066
          26.4334
          26.4584
          26.4773
          26.4846
          26.479
          26.4659
          26.4496
          26.4271
          26.3964
          26.3576
          26.3199
          26.2894
          26.2701
          26.2579
          26.2493
          26.242
          26.2353
          26.2292
          26.2239
          26.1784
          26.1819
          26.1873
          26.1947
          26.2047
          26.2192
          26.2401
          26.2683
          26.3036
          26.3443
          26.3906
          26.4336
          26.466
          26.4901
          26.5062
          26.5129
          26.5101
          26.4988
          26.4797
          26.4515
          26.4109
          26.3668
          26.3296
          26.3001
          26.2781
          26.2626
          26.2513
          26.2428
          26.2359
          26.2306
          26.2271
          26.1808
          26.1826
          26.1878
          26.1955
          26.2064
          26.2218
          26.2431
          26.2712
          26.306
          26.3474
          26.3998
          26.4495
          26.4836
          26.508
          26.5236
          26.5302
          26.5278
          26.5168
          26.4969
          26.4667
          26.42
          26.3705
          26.3329
          26.3032
          26.2807
          26.2642
          26.2522
          26.2431
          26.2362
          26.2312
          26.2294
        </DataArray>
      </PointData>
      <CellData>
      </CellData>
      <Points>
        <DataArray type="Float32" NumberOfComponents="3" format="ascii">
          0.039 0.00195 0.0
          0.0377 0.00195 0.0
          0.0364 0.00195 0.0
          0.0351 0.00195 0.0
          0.0338 0.00195 0.0
          0.0325 0.00195 0.0
          0.0312 0.00195 0.0
          0.0299 0.00195 0.0
          0.0286 0.00195 0.0
          0.0273 0.00195 0.0
          0.026 0.00195 0.0
          0.0247 0.00195 0.0
          0.0234 0.00195 0.0
          0.0221 0.00195 0.0
          0.0208 0.00195 0.0
          0.0195 0.00195 0.0
          0.0182 0.00195 0.0
          0.0169 0.00195 0.0
          0.0156 0.00195 0.0
          0.0143 0.00195 0.0
          0.013 0.00195 0.0
          0.0117 0.00195 0.0
          0.0104 0.00195 0.0
          0.0091 0.00195 0.0
          0.0078 0.00195 0.0
          0.0065 0.00195 0.0
          0.0052 0.00195 0.0
          0.0039 0.00195 0.0
          0.0026 0.00195 0.0
          0.0013 0.00195 0.0
          0 0.00195 0.0
          0.039 0.00065 0.0
          0.0377 0.00065 0.0
          0.0364 0.00065 0.0
          0.0351 0.00065 0.0
          0.0338 0.00065 0.0
          0.0325 0.00065 0.0
          0.0312 0.00065 0.0
          0.0299 0.00065 0.0
          0.0286 0.00065 0.0
          0.0273 0.00065 0.0
          0.026 0.00065 0.0
          0.0247 0.00065 0.0
          0.0234 0.00065 0.0
          0.0221 0.00065 0.0
          0.0208 0.00065 0.0
          0.0195 0.00065 0.0
          0.0182 0.00065 0.0
          0.0169 0.00065 0.0
          0.0156 0.00065 0.0
          0.0143 0.00065 0.0
          0.013 0.00065 0.0
          0.0117 0.00065 0.0
          0.0104 0.00065 0.0
          0.0091 0.00065 0.0
          0.0078 0.00065 0.0
          0.0065 0.00065 0.0
          0.0052 0.00065 0.0
          0.0039 0.00065 0.0
          0.0026 0.00065 0.0
          0.0013 0.00065 0.0
          0 0.00065 0.0
          0.039 -0.00065 0.0
          0.0377 -0.00065 0.0
          0.0364 -0.00065 0.0
          0.0351 -0.00065 0.0
          0.0338 -0.00065 0.0
          0.0325 -0.00065 0.0
          0.0312 -0.00065 0.0
          0.0299 -0.00065 0.0
          0.0286 -0.00065 0.0
          0.0273 -0.00065 0.0
          0.026 -0.00065 0.0
          0.0247 -0.00065 0.0
          0.0234 -0.00065 0.0
          0.0221 -0.00065 0.0
          0.0208 -0.00065 0.0
          0.0195 -0.00065 0.0
          0.0182 -0.00065 0.0
          0.0169 -0.00065 0.0
          0.0156 -0.00065 0.0
          0.0143 -0.00065 0.0
          0.013 -0.00065 0.0
          0.0117 -0.00065 0.0
          0.0104 -0.00065 0.0
          0.0091 -0.00065 0.0
          0.0078 -0.00065 0.0
          0.0065 -0.00065 0.0
          0.0052 -0.00065 0.0
          0.0039 -0.00065 0.0
          0.0026 -0.00065 0.0
          0.0013 -0.00065 0.0
          0 -0.00065 0.0
          0.039 -0.00195 0.0
          0.0377 -0.00195 0.0
          0.0364 -0.00195 0.0
          0.0351 -0.00195 0.0
          0.0338 -0.00195 0.0
          0.0325 -0.00195 0.0
          0.0312 -0.00195 0.0
          0.0299 -0.00195 0.0
          0.0286 -0.00195 0.0
          0.0273 -0.00195 0.0
          0.026 -0.00195 0.0
          0.0247 -0.00195 0.0
          0.0234 -0.00195 0.0
          0.0221 -0.00195 0.0
          0.0208 -0.00195 0.0
          0.0195 -0.00195 0.0
          0.0182 -0.00195 0.0
          0.0169 -0.00195 0.0
          0.0156 -0.00195 0.0
          0.0143 -0.00195 0.0
          0.013 -0.00195 0.0
          0.0117 -0.00195 0.0
          0.0104 -0.00195 0.0
          0.0091 -0.00195 0.0
          0.0078 -0.00195 0.0
          0.0065 -0.00195 0.0
          0.0052 -0.00195 0.0
          0.0039 -0.00195 0.0
          0.0026 -0.00195 0.0
          0.0013 -0.00195 0.0
          0 -0.00195 0.0
          0.039 -0.00325 0.0
          0.0377 -0.00325 0.0
          0.0364 -0.00325 0.0
          0.0351 -0.00325 0.0
          0.0338 -0.00325 0.0
          0.0325 -0.00325 0.0
          0.0312 -0.00325 0.0
          0.0299 -0.00325 0.0
          0.0286 -0.00325 0.0
          0.0273 -0.00325 0.0
          0.026 -0.00325 0.0
          0.0247 -0.00325 0.0
          0.0234 -0.00325 0.0
          0.0221 -0.00325 0.0
          0.0208 -0.00325 0.0
          0.0195 -0.00325 0.0
          0.0182 -0.00325 0.0
          0.0169 -0.00325 0.0
          0.0156 -0.00325 0.0
          0.0143 -0.00325 0.0
          0.013 -0.00325 0.0
          0.0117 -0.00325 0.0
          0.0104 -0.00325 0.0
          0.0091 -0.00325 0.0
          0.0078 -0.00325 0.0
          0.0065 -0.00325 0.0
          0.0052 -0.00325 0.0
          0.0039 -0.00325 0.0
          0.0026 -0.00325 0.0
          0.0013 -0.00325 0.0
          0 -0.00325 0.0
          0.039 -0.00455 0.0
          0.0377 -0.00455 0.0
          0.0364 -0.00455 0.0
          0.0351 -0.00455 0.0
          0.0338 -0.00455 0.0
          0.0325 -0.00455 0.0
          0.0312 -0.00455 0.0
          0.0299 -0.00455 0.0
          0.0286 -0.00455 0.0
          0.0273 -0.00455 0.0
          0.026 -0.00455 0.0
          0.0247 -0.00455 0.0
          0.0234 -0.00455 0.0
          0.0221 -0.00455 0.0
          0.0208 -0.00455 0.0
          0.0195 -0.00455 0.0
          0.0182 -0.00455 0.0
          0.0169 -0.00455 0.0
          0.0156 -0.00455 0.0
          0.0143 -0.00455 0.0
          0.013 -0.00455 0.0
          0.0117 -0.00455 0.0
          0.0104 -0.00455 0.0
          0.0091 -0.00455 0.0
          0.0078 -0.00455 0.0
          0.0065 -0.00455 0.0
          0.0052 -0.00455 0.0
          0.0039 -0.00455 0.0
          0.0026 -0.00455 0.0
          0.0013 -0.00455 0.0
          0 -0.00455 0.0
          0.039 -0.00585 0.0
          0.0377 -0.00585 0.0
          0.0364 -0.00585 0.0
          0.0351 -0.00585 0.0
          0.0338 -0.00585 0.0
          0.0325 -0.00585 0.0
          0.0312 -0.00585 0.0
          0.0299 -0.00585 0.0
          0.0286 -0.00585 0.0
          0.0273 -0.00585 0.0
          0.026 -0.00585 0.0
          0.0247 -0.00585 0.0
          0.0234 -0.00585 0.0
          0.0221 -0.00585 0.0
          0.0208 -0.00585 0.0
          0.0195 -0.00585 0.0
          0.0182 -0.00585 0.0
          0.0169 -0.00585 0.0
          0.0156 -0.00585 0.0
          0.0143 -0.00585 0.0
          0.013 -0.00585 0.0
          0.0117 -0.00585 0.0
          0.0104 -0.00585 0.0
          0.0091 -0.00585 0.0
          0.0078 -0.00585 0.0
          0.0065 -0.00585 0.0
          0.0052 -0.00585 0.0
          0.0039 -0.00585 0.0
          0.0026 -0.00585 0.0
          0.0013 -0.00585 0.0
          0 -0.00585 0.0
          0.039 -0.00715 0.0
          0.0377 -0.00715 0.0
          0.0364 -0.00715 0.0
          0.0351 -0.00715 0.0
          0.0338 -0.00715 0.0
          0.0325 -0.00715 0.0
          0.0312 -0.00715 0.0
          0.0299 -0.00715 0.0
          0.0286 -0.00715 0.0
          0.0273 -0.00715 0.0
          0.026 -0.00715 0.0
          0.0247 -0.00715 0.0
          0.0234 -0.00715 0.0
          0.0221 -0.00715 0.0
          0.0208 -0.00715 0.0
          0.0195 -0.00715 0.0
          0.0182 -0.00715 0.0
          0.0169 -0.00715 0.0
          0.0156 -0.00715 0.0
          0.0143 -0.00715 0.0
          0.013 -0.00715 0.0
          0.0117 -0.00715 0.0
          0.0104 -0.00715 0.0
          0.0091 -0.00715 0.0
          0.0078 -0.00715 0.0
          0.0065 -0.00715 0.0
          0.0052 -0.00715 0.0
          0.0039 -0.00715 0.0
          0.0026 -0.00715 0.0
          0.0013 -0.00715 0.0
          0 -0.00715 0.0
          0.039 -0.00845 0.0
          0.0377 -0.00845 0.0
          0.0364 -0.00845 0.0
          0.0351 -0.00845 0.0
          0.0338 -0.00845 0.0
          0.0325 -0.00845 0.0
          0.0312 -0.00845 0.0
          0.0299 -0.00845 0.0
          0.0286 -0.00845 0.0
          0.0273 -0.00845 0.0
          0.026 -0.00845 0.0
          0.0247 -0.00845 0.0
          0.0234 -0.00845 0.0
          0.0221 -0.00845 0.0
          0.0208 -0.00845 0.0
          0.0195 -0.00845 0.0
          0.0182 -0.00845 0.0
          0.0169 -0.00845 0.0
          0.0156 -0.00845 0.0
          0.0143 -0.00845 0.0
          0.013 -0.00845 0.0
          0.0117 -0.00845 0.0
          0.0104 -0.00845 0.0
          0.0091 -0.00845 0.0
          0.0078 -0.00845 0.0
          0.0065 -0.00845 0.0
          0.0052 -0.00845 0.0
          0.0039 -0.00845 0.0
          0.0026 -0.00845 0.0
          0.0013 -0.00845 0.0
          0 -0.00845 0.0
          0.039 -0.00975 0.0
          0.0377 -0.00975 0.0
          0.0364 -0.00975 0.0
          0.0351 -0.00975 0.0
          0.0338 -0.00975 0.0
          0.0325 -0.00975 0.0
          0.0312 -0.00975 0.0
          0.0299 -0.00975 0.0
          0.0286 -0.00975 0.0
          0.0273 -0.00975 0.0
          0.026 -0.00975 0.0
          0.0247 -0.00975 0.0
          0.0234 -0.00975 0.0
          0.0221 -0.00975 0.0
          0.0208 -0.00975 0.0
          0.0195 -0.00975 0.0
          0.0182 -0.00975 0.0
          0.0169 -0.00975 0.0
          0.0156 -0.00975 0.0
          0.0143 -0.00975 0.0
          0.013 -0.00975 0.0
          0.0117 -0.00975 0.0
          0.0104 -0.00975 0.0
          0.0091 -0.00975 0.0
          0.0078 -0.00975 0.0
          0.0065 -0.00975 0.0
          0.0052 -0.00975 0.0
          0.0039 -0.00975 0.0
          0.0026 -0.00975 0.0
          0.0013 -0.00975 0.0
          0 -0.00975 0.0
          0.039 -0.01105 0.0
          0.0377 -0.01105 0.0
          0.0364 -0.01105 0.0
          0.0351 -0.01105 0.0
          0.0338 -0.01105 0.0
          0.0325 -0.01105 0.0
          0.0312 -0.01105 0.0
          0.0299 -0.01105 0.0
          0.0286 -0.01105 0.0
          0.0273 -0.01105 0.0
          0.026 -0.01105 0.0
          0.0247 -0.01105 0.0
          0.0234 -0.01105 0.0
          0.0221 -0.01105 0.0
          0.0208 -0.01105 0.0
          0.0195 -0.01105 0.0
          0.0182 -0.01105 0.0
          0.0169 -0.01105 0.0
          0.0156 -0.01105 0.0
          0.0143 -0.01105 0.0
          0.013 -0.01105 0.0
          0.0117 -0.01105 0.0
          0.0104 -0.01105 0.0
          0.0091 -0.01105 0.0
          0.0078 -0.01105 0.0
          0.0065 -0.01105 0.0
          0.0052 -0.01105 0.0
          0.0039 -0.01105 0.0
          0.0026 -0.01105 0.0
          0.0013 -0.01105 0.0
          0 -0.01105 0.0
          0.039 -0.01235 0.0
          0.0377 -0.01235 0.0
          0.0364 -0.01235 0.0
          0.0351 -0.01235 0.0
          0.0338 -0.01235 0.0
          0.0325 -0.01235 0.0
          0.0312 -0.01235 0.0
          0.0299 -0.01235 0.0
          0.0286 -0.01235 0.0
          0.0273 -0.01235 0.0
          0.026 -0.01235 0.0
          0.0247 -0.01235 0.0
          0.0234 -0.01235 0.0
          0.0221 -0.01235 0.0
          0.0208 -0.01235 0.0
          0.0195 -0.01235 0.0
          0.0182 -0.01235 0.0
          0.0169 -0.01235 0.0
          0.0156 -0.01235 0.0
          0.0143 -0.01235 0.0
          0.013 -0.01235 0.0
          0.0117 -0.01235 0.0
          0.0104 -0.01235 0.0
          0.0091 -0.01235 0.0
          0.0078 -0.01235 0.0
          0.0065 -0.01235 0.0
          0.0052 -0.01235 0.0
          0.0039 -0.01235 0.0
          0.0026 -0.01235 0.0
          0.0013 -0.01235 0.0
          0 -0.01235 0.0
          0.039 -0.01365 0.0
          0.0377 -0.01365 0.0
          0.0364 -0.01365 0.0
          0.0351 -0.01365 0.0
          0.0338 -0.01365 0.0
          0.0325 -0.01365 0.0
          0.0312 -0.01365 0.0
          0.0299 -0.01365 0.0
          0.0286 -0.01365 0.0
          0.0273 -0.01365 0.0
          0.026 -0.01365 0.0
          0.0247 -0.01365 0.0
          0.0234 -0.01365 0.0
          0.0221 -0.01365 0.0
          0.0208 -0.01365 0.0
          0.0195 -0.01365 0.0
          0.0182 -0.01365 0.0
          0.0169 -0.01365 0.0
          0.0156 -0.01365 0.0
          0.0143 -0.01365 0.0
          0.013 -0.01365 0.0
          0.0117 -0.01365 0.0
          0.0104 -0.01365 0.0
          0.0091 -0.01365 0.0
          0.0078 -0.01365 0.0
          0.0065 -0.01365 0.0
          0.0052 -0.01365 0.0
          0.0039 -0.01365 0.0
          0.0026 -0.01365 0.0
          0.0013 -0.01365 0.0
          0 -0.01365 0.0
          0.039 -0.01495 0.0
          0.0377 -0.01495 0.0
          0.0364 -0.01495 0.0
          0.0351 -0.01495 0.0
          0.0338 -0.01495 0.0
          0.0325 -0.01495 0.0
          0.0312 -0.01495 0.0
          0.0299 -0.01495 0.0
          0.0286 -0.01495 0.0
          0.0273 -0.01495 0.0
          0.026 -0.01495 0.0
          0.0247 -0.01495 0.0
          0.0234 -0.01495 0.0
          0.0221 -0.01495 0.0