<?xml version="1.0"?>
<VTKFile type="UnstructuredGrid" version="0.1" byte_order="LittleEndian">
  <UnstructuredGrid>
    <Piece NumberOfPoints="961" NumberOfCells="900">
      <PointData Scalars="Temperature">
        <DataArray type="Float32" Name="Temperature" format="ascii">
          21.0013
          21.0227
          21.0449
          21.0669
          21.0855
          21.0978
          21.1028
          21.103
          21.1022
          21.1032
          21.1061
          21.1087
          21.109
          21.107
          21.1051
          21.1052
          21.1075
          21.1096
          21.1094
          21.1069
          21.1041
          21.1032
          21.1042
          21.1042
          21.0998
          21.0887
          21.072
          21.0525
          21.0338
          21.0167
          21.001
          21.0221
          21.366
          21.7348
          22.1045
          22.4249
          22.6261
          22.7006
          22.688
          22.6647
          22.6818
          22.739
          22.7908
          22.7948
          22.7529
          22.7112
          22.7139
          22.7604
          22.8053
          22.803
          22.7521
          22.6964
          22.6814
          22.7075
          22.7241
          22.6582
          22.4744
          22.1843
          21.8574
          21.5441
          21.2699
          21.0162
          21.041
          21.6824
          22.38
          23.2132
          23.89
          24.3202
          24.3928
          24.2802
          24.1635
          24.2019
          24.3796
          24.5459
          24.5498
          24.4003
          24.252
          24.2587
          24.4168
          24.5722
          24.5699
          24.4045
          24.229
          24.1954
          24.3175
          24.436
          24.3717
          23.9725
          23.3536
          22.6072
          22.0147
          21.5029
          21.0303
          21.0568
          21.9439
          22.9173
          24.0825
          26.1796
          26.1798
          26.1798
          26.1798
          25.2841
          25.3385
          26.3752
          26.3753
          26.3753
          26.3752
          25.4028
          25.4127
          26.4113
          26.4114
          26.4114
          26.4113
          25.3748
          25.3271
          26.2402
          26.2403
          26.2402
          26.24
          24.2686
          23.2323
          22.408
          21.6997
          21.0422
          21.0682
          22.1319
          23.2769
          24.6342
          26.1804
          26.1805
          26.1806
          26.1806
          25.9392
          26.0043
          26.376
          26.376
          26.376
          26.376
          26.0754
          26.0875
          26.4121
          26.4122
          26.4122
          26.4121
          26.0458
          25.9888
          26.241
          26.241
          26.2409
          26.2408
          24.8527
          23.6616
          22.7003
          21.8502
          21.0514
          21.0755
          22.2462
          23.4747
          24.7924
          26.1824
          26.1824
          26.1825
          26.1825
          26.148
          26.2131
          26.3779
          26.3779
          26.3779
          26.3779
          26.2884
          26.3004
          26.414
          26.414
          26.414
          26.414
          26.2565
          26.1995
          26.2429
          26.2429
          26.2428
          26.2428
          25.0373
          23.9117
          22.8911
          21.9539
          21.0578
          21.0794
          22.3062
          23.5614
          24.8576
          26.1854
          26.1855
          26.1855
          26.1855
          26.2159
          26.281
          26.3809
          26.3809
          26.3809
          26.3809
          26.3576
          26.3696
          26.417
          26.417
          26.417
          26.417
          26.325
          26.268
          26.2459
          26.2459
          26.2459
          26.2458
          25.1218
          24.0357
          23.0033
          22.0188
          21.0619
          21.0813
          22.3345
          23.6012
          24.8875
          26.1896
          26.1897
          26.1897
          26.1897
          26.2405
          26.3055
          26.385
          26.385
          26.385
          26.385
          26.3825
          26.3945
          26.4211
          26.4211
          26.4211
          26.4211
          26.3497
          26.2927
          26.2501
          26.2501
          26.2501
          26.25
          25.1651
          24.1007
          23.0652
          22.0566
          21.0643
          21.0822
          22.348
          23.6206
          24.9032
          26.1949
          26.195
          26.1951
          26.1951
          26.2522
          26.3172
          26.3902
          26.3902
          26.3902
          26.3902
          26.3942
          26.4063
          26.4264
          26.4264
          26.4264
          26.4264
          26.3614
          26.3044
          26.2554
          26.2554
          26.2554
          26.2553
          25.1896
          24.1363
          23.0994
          22.0779
          21.0657
          21.0827
          22.3551
          23.6312
          24.9133
          26.2014
          26.2015
          26.2015
          26.2015
          26.2606
          26.3256
          26.3966
          26.3966
          26.3966
          26.3966
          26.4026
          26.4147
          26.4327
          26.4327
          26.4327
          26.4327
          26.3698
          26.3129
          26.2619
          26.2619
          26.2618
          26.2618
          25.2053
          24.1571
          23.119
          22.09
          21.0665
          21.083
          22.3595
          23.6384
          24.9213
          26.209
          26.2091
          26.2091
          26.2091
          26.2688
          26.3337
          26.404
          26.404
          26.404
          26.404
          26.4107
          26.4228
          26.4402
          26.4402
          26.4402
          26.4402
          26.3779
          26.321
          26.2695
          26.2695
          26.2694
          26.2694
          25.2169
          24.1706
          23.1311
          22.0973
          21.067
          21.0832
          22.3628
          23.6443
          24.9289
          26.2178
          26.2178
          26.2179
          26.2179
          26.2777
          26.3426
          26.4126
          26.4126
          26.4126
          26.4126
          26.4195
          26.4316
          26.4488
          26.4488
          26.4488
          26.4488
          26.3868
          26.3299
          26.2782
          26.2782
          26.2781
          26.2781
          25.2268
          24.1806
          23.1395
          22.1022
          21.0673
          21.0834
          22.3659
          23.6499
          24.9368
          26.2276
          26.2277
          26.2278
          26.2278
          26.2875
          26.3524
          26.4223
          26.4223
          26.4223
          26.4223
          26.4293
          26.4413
          26.4585
          26.4585
          26.4585
          26.4585
          26.3966
          26.3398
          26.288
          26.288
          26.288
          26.2879
          25.2362
          24.1892
          23.1461
          22.106
          21.0675
          21.0836
          22.369
          23.6558
          24.9453
          26.2387
          26.2387
          26.2388
          26.2388
          26.2985
          26.3633
          26.4331
          26.4331
          26.4331
          26.4331
          26.4401
          26.4522
          26.4693
          26.4693
          26.4693
          26.4693
          26.4075
          26.3507
          26.299
          26.299
          26.299
          26.2989
          25.246
          24.1973
          23.1521
          22.1092
          21.0677
          21.0838
          22.3723
          23.6622
          24.9546
          26.2508
          26.2509
          26.2509
          26.2509
          26.3106
          26.3753
          26.4451
          26.4451
          26.4451
          26.4451
          26.4521
          26.4641
          26.4813
          26.4813
          26.4813
          26.4813
          26.4195
          26.3628
          26.3111
          26.3111
          26.3111
          26.311
          25.2564
          24.2057
          23.1581
          22.1125
          21.0679
          21.084
          22.3759
          23.6691
          24.9647
          26.2641
          26.2642
          26.2642
          26.2642
          26.3238
          26.3884
          26.4581
          26.4581
          26.4581
          26.4581
          26.4651
          26.4772
          26.4943
          26.4943
          26.4943
          26.4943
          26.4326
          26.376
          26.3244
          26.3244
          26.3243
          26.3243
          25.2677
          24.2148
          23.1646
          22.116
          21.0681
          21.0843
          22.3799
          23.6767
          24.9758
          26.2785
          26.2786
          26.2786
          26.2787
          26.3381
          26.4027
          26.4723
          26.4723
          26.4723
          26.4723
          26.4793
          26.4913
          26.5085
          26.5085
          26.5085
          26.5085
          26.4468
          26.3903
          26.3388
          26.3388
          26.3387
          26.3387
          25.2802
          24.2251
          23.172
          22.12
          21.0684
          21.0845
          22.3844
          23.6852
          24.988
          26.2941
          26.2942
          26.2942
          26.2942
          26.3536
          26.4181
          26.4875
          26.4875
          26.4876
          26.4876
          26.4946
          26.5066
          26.5238
          26.5238
          26.5238
          26.5238
          26.4622
          26.4057
          26.3543
          26.3543
          26.3542
          26.3542
          25.2943
          24.2372
          23.1811
          22.1251
          21.0687
          21.0849
          22.3898
          23.695
          25.0015
          26.3108
          26.3109
          26.3109
          26.3109
          26.3702
          26.4345
          26.5039
          26.5039
          26.5039
          26.5039
          26.511
          26.523
          26.5402
          26.5402
          26.5402
          26.5402
          26.4787
          26.4223
          26.3709
          26.3709
          26.3709
          26.3708
          25.3108
          24.2524
          23.1931
          22.1319
          21.0691
          21.0853
          22.3966
          23.7071
          25.017
          26.3286
          26.3287
          26.3287
          26.3288
          26.3879
          26.4522
          26.5214
          26.5214
          26.5215
          26.5215
          26.5285
          26.5406
          26.5577
          26.5577
          26.5577
          26.5577
          26.4963
          26.44
          26.3887
          26.3887
          26.3886
          26.3886
          25.3309
          24.2727
          23.21
          22.1418
          21.0698
          21.0858
          22.4066
          23.7234
          25.036
          26.3476
          26.3477
          26.3477
          26.3477
          26.4068
          26.4709
          26.5401
          26.5401
          26.5401
          26.5401
          26.5471
          26.5592
          26.5763
          26.5763
          26.5763
          26.5763
          26.515
          26.4588
          26.4076
          26.4076
          26.4075
          26.4075
          25.3572
          24.3022
          23.2361
          22.1577
          21.0707
          21.0877
          22.4228
          23.749
          25.0618
          26.3677
          26.3678
          26.3678
          26.3679
          26.4268
          26.4908
          26.5598
          26.5598
          26.5598
          26.5598
          26.567
          26.5791
          26.5961
          26.5961
          26.5961
          26.596
          26.5349
          26.4788
          26.4277
          26.4276
          26.4276
          26.4275
          25.3942
          24.3486
          23.2794
          22.1842
          21.0732
          21.0863
          22.4549
          23.7939
          25.1019
          26.3889
          26.389
          26.3891
          26.3891
          26.448
          26.5117
          26.5806
          26.5806
          26.5807
          26.5807
          26.5881
          26.6002
          26.617
          26.6169
          26.6169
          26.6169
          26.5559
          26.4999
          26.4489
          26.4488
          26.4487
          26.4486
          25.4503
          24.4263
          23.3547
          22.2334
          21.0729
          21.1059
          22.5136
          23.8846
          25.1721
          26.4112
          26.4113
          26.4115
          26.4116
          26.4703
          26.5339
          26.6024
          26.6025
          26.6028
          26.6029
          26.6109
          26.623
          26.6391
          26.639
          26.6388
          26.6387
          26.5782
          26.5224
          26.4713
          26.4712
          26.471
          26.4708
          25.5402
          24.5609
          23.4941
          22.3185
          21.0942
          21.0477
          22.6748
          24.0658
          25.3102
          26.4343
          26.4346
          26.4352
          26.4355
          26.4943
          26.5571
          26.6249
          26.6253
          26.6261
          26.6265
          26.6363
          26.6483
          26.6625
          26.6622
          26.6617
          26.6615
          26.6019
          26.5467
          26.4951
          26.4948
          26.4942
          26.4938
          25.6849
          24.8013
          23.7475
          22.5182
          21.0378
          21.3727
          22.9108
          24.5033
          25.5673
          26.4576
          26.4587
          26.4605
          26.4615
          26.5206
          26.582
          26.6474
          26.6487
          26.6511
          26.6524
          26.6667
          26.6784
          26.6878
          26.6869
          26.6854
          26.6846
          26.6279
          26.5739
          26.521
          26.52
          26.5181
          26.5171
          25.9043
          25.2065
          24.285
          22.8049
          21.3686
          20.0953
          24.2062
          25.3274
          25.9754
          26.4797
          26.4821
          26.4886
          26.4909
          26.5535
          26.6087
          26.6677
          26.6708
          26.6796
          26.6827
          26.7086
          26.719
          26.7162
          26.7142
          26.7088
          26.7068
          26.6577
          26.6088
          26.5505
          26.5481
          26.5414
          26.5389
          26.2016
          25.8069
          25.2348
          24.1704
          20.0834
          26.4761
          26.484
          26.4903
          26.4965
          26.4981
          26.5021
          26.5148
          26.5415
          26.6003
          26.641
          26.6753
          26.6915
          26.7089
          26.7336
          26.7735
          26.7809
          26.7584
          26.7423
          26.7314
          26.7218
          26.6969
          26.6597
          26.6014
          26.5744
          26.5612
          26.5565
          26.5535
          26.5464
          26.5394
          26.5327
          26.5248
          26.4792
          26.4848
          26.4909
          26.4974
          26.5051
          26.5164
          26.535
          26.565
          26.6027
          26.6441
          26.6809
          26.7126
          26.7394
          26.7645
          26.7834
          26.7907
          26.7851
          26.772
          26.7557
          26.7331
          26.7023
          26.6634
          26.6255
          26.5948
          26.5754
          26.5631
          26.5543
          26.5468
          26.5398
          26.5335
          26.5278
          26.4827
          26.4864
          26.4919
          26.4995
          26.5098
          26.5244
          26.5454
          26.5739
          26.6092
          26.6501
          26.6965
          26.7396
          26.772
          26.7962
          26.8123
          26.819
          26.8162
          26.8048
          26.7857
          26.7574
          26.7167
          26.6725
          26.6352
          26.6055
          26.5834
          26.5677
          26.5563
          26.5475
          26.5404
          26.5349
          26.5312
          26.4852
          26.487
          26.4925
          26.5004
          26.5114
          26.527
          26.5485
          26.5767
          26.6116
          26.6532
          26.7057
          26.7555
          26.7897
          26.8141
          26.8297
          26.8363
          26.8339
          26.8228
          26.8029
          26.7726
          26.7258
          26.6763
          26.6385
          26.6087
          26.586
          26.5693
          26.5571
          26.5479
          26.5407
          26.5355
          26.5337
        </DataArray>
      </PointData>
      <CellData>
      </CellData>
      <Points>
        <DataArray type="Float32" NumberOfComponents="3" format="ascii">
          0.039 0.00195 0.0
          0.0377 0.00195 0.0
          0.0364 0.00195 0.0
          0.0351 0.00195 0.0
          0.0338 0.00195 0.0
          0.0325 0.00195 0.0
          0.0312 0.00195 0.0
          0.0299 0.00195 0.0
          0.0286 0.00195 0.0
          0.0273 0.00195 0.0
          0.026 0.00195 0.0
          0.0247 0.00195 0.0
          0.0234 0.00195 0.0
          0.0221 0.00195 0.0
          0.0208 0.00195 0.0
          0.0195 0.00195 0.0
          0.0182 0.00195 0.0
          0.0169 0.00195 0.0
          0.0156 0.00195 0.0
          0.0143 0.00195 0.0
          0.013 0.00195 0.0
          0.0117 0.00195 0.0
          0.0104 0.00195 0.0
          0.0091 0.00195 0.0
          0.0078 0.00195 0.0
          0.0065 0.00195 0.0
          0.0052 0.00195 0.0
          0.0039 0.00195 0.0
          0.0026 0.00195 0.0
          0.0013 0.00195 0.0
          0 0.00195 0.0
          0.039 0.00065 0.0
          0.0377 0.00065 0.0
          0.0364 0.00065 0.0
          0.0351 0.00065 0.0
          0.0338 0.00065 0.0
          0.0325 0.00065 0.0
          0.0312 0.00065 0.0
          0.0299 0.00065 0.0
          0.0286 0.00065 0.0
          0.0273 0.00065 0.0
          0.026 0.00065 0.0
          0.0247 0.00065 0.0
          0.0234 0.00065 0.0
          0.0221 0.00065 0.0
          0.0208 0.00065 0.0
          0.0195 0.00065 0.0
          0.0182 0.00065 0.0
          0.0169 0.00065 0.0
          0.0156 0.00065 0.0
          0.0143 0.00065 0.0
          0.013 0.00065 0.0
          0.0117 0.00065 0.0
          0.0104 0.00065 0.0
          0.0091 0.00065 0.0
          0.0078 0.00065 0.0
          0.0065 0.00065 0.0
          0.0052 0.00065 0.0
          0.0039 0.00065 0.0
          0.0026 0.00065 0.0
          0.0013 0.00065 0.0
          0 0.00065 0.0
          0.039 -0.00065 0.0
          0.0377 -0.00065 0.0
          0.0364 -0.00065 0.0
          0.0351 -0.00065 0.0
          0.0338 -0.00065 0.0
          0.0325 -0.00065 0.0
          0.0312 -0.00065 0.0
          0.0299 -0.00065 0.0
          0.0286 -0.00065 0.0
          0.0273 -0.00065 0.0
          0.026 -0.00065 0.0
          0.0247 -0.00065 0.0
          0.0234 -0.00065 0.0
          0.0221 -0.00065 0.0
          0.0208 -0.00065 0.0
          0.0195 -0.00065 0.0
          0.0182 -0.00065 0.0
          0.0169 -0.00065 0.0
          0.0156 -0.00065 0.0
          0.0143 -0.00065 0.0
          0.013 -0.00065 0.0
          0.0117 -0.00065 0.0
          0.0104 -0.00065 0.0
          0.0091 -0.00065 0.0
          0.0078 -0.00065 0.0
          0.0065 -0.00065 0.0
          0.0052 -0.00065 0.0
          0.0039 -0.00065 0.0
          0.0026 -0.00065 0.0
          0.0013 -0.00065 0.0
          0 -0.00065 0.0
          0.039 -0.00195 0.0
          0.0377 -0.00195 0.0
          0.0364 -0.00195 0.0
          0.0351 -0.00195 0.0
          0.0338 -0.00195 0.0
          0.0325 -0.00195 0.0
          0.0312 -0.00195 0.0
          0.0299 -0.00195 0.0
          0.0286 -0.00195 0.0
          0.0273 -0.00195 0.0
          0.026 -0.00195 0.0
          0.0247 -0.00195 0.0
          0.0234 -0.00195 0.0
          0.0221 -0.00195 0.0
          0.0208 -0.00195 0.0
          0.0195 -0.00195 0.0
          0.0182 -0.00195 0.0
          0.0169 -0.00195 0.0
          0.0156 -0.00195 0.0
          0.0143 -0.00195 0.0
          0.013 -0.00195 0.0
          0.0117 -0.00195 0.0
          0.0104 -0.00195 0.0
          0.0091 -0.00195 0.0
          0.0078 -0.00195 0.0
          0.0065 -0.00195 0.0
          0.0052 -0.00195 0.0
          0.0039 -0.00195 0.0
          0.0026 -0.00195 0.0
          0.0013 -0.00195 0.0
          0 -0.00195 0.0
          0.039 -0.00325 0.0
          0.0377 -0.00325 0.0
          0.0364 -0.00325 0.0
          0.0351 -0.00325 0.0
          0.0338 -0.00325 0.0
          0.0325 -0.00325 0.0
          0.0312 -0.00325 0.0
          0.0299 -0.00325 0.0
          0.0286 -0.00325 0.0
          0.0273 -0.00325 0.0
          0.026 -0.00325 0.0
          0.0247 -0.00325 0.0
          0.0234 -0.00325 0.0
          0.0221 -0.00325 0.0
          0.0208 -0.00325 0.0
          0.0195 -0.00325 0.0
          0.0182 -0.00325 0.0
          0.0169 -0.00325 0.0
          0.0156 -0.00325 0.0
          0.0143 -0.00325 0.0
          0.013 -0.00325 0.0
          0.0117 -0.00325 0.0
          0.0104 -0.00325 0.0
          0.0091 -0.00325 0.0
          0.0078 -0.00325 0.0
          0.0065 -0.00325 0.0
          0.0052 -0.00325 0.0
          0.0039 -0.00325 0.0
          0.0026 -0.00325 0.0
          0.0013 -0.00325 0.0
          0 -0.00325 0.0
          0.039 -0.00455 0.0
          0.0377 -0.00455 0.0
          0.0364 -0.00455 0.0
          0.0351 -0.00455 0.0
          0.0338 -0.00455 0.0
          0.0325 -0.00455 0.0
          0.0312 -0.00455 0.0
          0.0299 -0.00455 0.0
          0.0286 -0.00455 0.0
          0.0273 -0.00455 0.0
          0.026 -0.00455 0.0
          0.0247 -0.00455 0.0
          0.0234 -0.00455 0.0
          0.0221 -0.00455 0.0
          0.0208 -0.00455 0.0
          0.0195 -0.00455 0.0
          0.0182 -0.00455 0.0
          0.0169 -0.00455 0.0
          0.0156 -0.00455 0.0
          0.0143 -0.00455 0.0
          0.013 -0.00455 0.0
          0.0117 -0.00455 0.0
          0.0104 -0.00455 0.0
          0.0091 -0.00455 0.0
          0.0078 -0.00455 0.0
          0.0065 -0.00455 0.0
          0.0052 -0.00455 0.0
          0.0039 -0.00455 0.0
          0.0026 -0.00455 0.0
          0.0013 -0.00455 0.0
          0 -0.00455 0.0
          0.039 -0.00585 0.0
          0.0377 -0.00585 0.0
          0.0364 -0.00585 0.0
          0.0351 -0.00585 0.0
          0.0338 -0.00585 0.0
          0.0325 -0.00585 0.0
          0.0312 -0.00585 0.0
          0.0299 -0.00585 0.0
          0.0286 -0.00585 0.0
          0.0273 -0.00585 0.0
          0.026 -0.00585 0.0
          0.0247 -0.00585 0.0
          0.0234 -0.00585 0.0
          0.0221 -0.00585 0.0
          0.0208 -0.00585 0.0
          0.0195 -0.00585 0.0
          0.0182 -0.00585 0.0
          0.0169 -0.00585 0.0
          0.0156 -0.00585 0.0
          0.0143 -0.00585 0.0
          0.013 -0.00585 0.0
          0.0117 -0.00585 0.0
          0.0104 -0.00585 0.0
          0.0091 -0.00585 0.0
          0.0078 -0.00585 0.0
          0.0065 -0.00585 0.0
          0.0052 -0.00585 0.0
          0.0039 -0.00585 0.0
          0.0026 -0.00585 0.0
          0.0013 -0.00585 0.0
          0 -0.00585 0.0
          0.039 -0.00715 0.0
          0.0377 -0.00715 0.0
          0.0364 -0.00715 0.0
          0.0351 -0.00715 0.0
          0.0338 -0.00715 0.0
          0.0325 -0.00715 0.0
          0.0312 -0.00715 0.0
          0.0299 -0.00715 0.0
          0.0286 -0.00715 0.0
          0.0273 -0.00715 0.0
          0.026 -0.00715 0.0
          0.0247 -0.00715 0.0
          0.0234 -0.00715 0.0
          0.0221 -0.00715 0.0
          0.0208 -0.00715 0.0
          0.0195 -0.00715 0.0
          0.0182 -0.00715 0.0
          0.0169 -0.00715 0.0
          0.0156 -0.00715 0.0
          0.0143 -0.00715 0.0
          0.013 -0.00715 0.0
          0.0117 -0.00715 0.0
          0.0104 -0.00715 0.0
          0.0091 -0.00715 0.0
          0.0078 -0.00715 0.0
          0.0065 -0.00715 0.0
          0.0052 -0.00715 0.0
          0.0039 -0.00715 0.0
          0.0026 -0.00715 0.0
          0.0013 -0.00715 0.0
          0 -0.00715 0.0
          0.039 -0.00845 0.0
          0.0377 -0.00845 0.0
          0.0364 -0.00845 0.0
          0.0351 -0.00845 0.0
          0.0338 -0.00845 0.0
          0.0325 -0.00845 0.0
          0.0312 -0.00845 0.0
          0.0299 -0.00845 0.0
          0.0286 -0.00845 0.0
          0.0273 -0.00845 0.0
          0.026 -0.00845 0.0
          0.0247 -0.00845 0.0
          0.0234 -0.00845 0.0
          0.0221 -0.00845 0.0
          0.0208 -0.00845 0.0
          0.0195 -0.00845 0.0
          0.0182 -0.00845 0.0
          0.0169 -0.00845 0.0
          0.0156 -0.00845 0.0
          0.0143 -0.00845 0.0
          0.013 -0.00845 0.0
          0.0117 -0.00845 0.0
          0.0104 -0.00845 0.0
          0.0091 -0.00845 0.0
          0.0078 -0.00845 0.0
          0.0065 -0.00845 0.0
          0.0052 -0.00845 0.0
          0.0039 -0.00845 0.0
          0.0026 -0.00845 0.0
          0.0013 -0.00845 0.0
          0 -0.00845 0.0
          0.039 -0.00975 0.0
          0.0377 -0.00975 0.0
          0.0364 -0.00975 0.0
          0.0351 -0.00975 0.0
          0.0338 -0.00975 0.0
          0.0325 -0.00975 0.0
          0.0312 -0.00975 0.0
          0.0299 -0.00975 0.0
          0.0286 -0.00975 0.0
          0.0273 -0.00975 0.0
          0.026 -0.00975 0.0
          0.0247 -0.00975 0.0
          0.0234 -0.00975 0.0
          0.0221 -0.00975 0.0
          0.0208 -0.00975 0.0
          0.0195 -0.00975 0.0
          0.0182 -0.00975 0.0
          0.0169 -0.00975 0.0
          0.0156 -0.00975 0.0
          0.0143 -0.00975 0.0
          0.013 -0.00975 0.0
          0.0117 -0.00975 0.0
          0.0104 -0.00975 0.0
          0.0091 -0.00975 0.0
          0.0078 -0.00975 0.0
          0.0065 -0.00975 0.0
          0.0052 -0.00975 0.0
          0.0039 -0.00975 0.0
          0.0026 -0.00975 0.0
          0.0013 -0.00975 0.0
          0 -0.00975 0.0
          0.039 -0.01105 0.0
          0.0377 -0.01105 0.0
          0.0364 -0.01105 0.0
          0.0351 -0.01105 0.0
          0.0338 -0.01105 0.0
          0.0325 -0.01105 0.0
          0.0312 -0.01105 0.0
          0.0299 -0.01105 0.0
          0.0286 -0.01105 0.0
          0.0273 -0.01105 0.0
          0.026 -0.01105 0.0
          0.0247 -0.01105 0.0
          0.0234 -0.01105 0.0
          0.0221 -0.01105 0.0
          0.0208 -0.01105 0.0
          0.0195 -0.01105 0.0
          0.0182 -0.01105 0.0
          0.0169 -0.01105 0.0
          0.0156 -0.01105 0.0
          0.0143 -0.01105 0.0
          0.013 -0.01105 0.0
          0.0117 -0.01105 0.0
          0.0104 -0.01105 0.0
          0.0091 -0.01105 0.0
          0.0078 -0.01105 0.0
          0.0065 -0.01105 0.0
          0.0052 -0.01105 0.0
          0.0039 -0.01105 0.0
          0.0026 -0.01105 0.0
          0.0013 -0.01105 0.0
          0 -0.01105 0.0
          0.039 -0.01235 0.0
          0.0377 -0.01235 0.0
          0.0364 -0.01235 0.0
          0.0351 -0.01235 0.0
          0.0338 -0.01235 0.0
          0.0325 -0.01235 0.0
          0.0312 -0.01235 0.0
          0.0299 -0.01235 0.0
          0.0286 -0.01235 0.0
          0.0273 -0.01235 0.0
          0.026 -0.01235 0.0
          0.0247 -0.01235 0.0
          0.0234 -0.01235 0.0
          0.0221 -0.01235 0.0
          0.0208 -0.01235 0.0
          0.0195 -0.01235 0.0
          0.0182 -0.01235 0.0
          0.0169 -0.01235 0.0
          0.0156 -0.01235 0.0
          0.0143 -0.01235 0.0
          0.013 -0.01235 0.0
          0.0117 -0.01235 0.0
          0.0104 -0.01235 0.0
          0.0091 -0.01235 0.0
          0.0078 -0.01235 0.0
          0.0065 -0.01235 0.0
          0.0052 -0.01235 0.0
          0.0039 -0.01235 0.0
          0.0026 -0.01235 0.0
          0.0013 -0.01235 0.0
          0 -0.01235 0.0
          0.039 -0.01365 0.0
          0.0377 -0.01365 0.0
          0.0364 -0.01365 0.0
          0.0351 -0.01365 0.0
          0.0338 -0.01365 0.0
          0.0325 -0.01365 0.0
          0.0312 -0.01365 0.0
          0.0299 -0.01365 0.0
          0.0286 -0.01365 0.0
          0.0273 -0.01365 0.0
          0.026 -0.01365 0.0
          0.0247 -0.01365 0.0
          0.0234 -0.01365 0.0
          0.0221 -0.01365 0.0
          0.0208 -0.01365 0.0
          0.0195 -0.01365 0.0
          0.0182 -0.01365 0.0
          0.0169 -0.01365 0.0
          0.0156 -0.01365 0.0
          0.0143 -0.01365 0.0
          0.013 -0.01365 0.0
          0.0117 -0.01365 0.0
          0.0104 -0.01365 0.0
          0.0091 -0.01365 0.0
          0.0078 -0.01365 0.0
          0.0065 -0.01365 0.0
          0.0052 -0.01365 0.0
          0.0039 -0.01365 0.0
          0.0026 -0.01365 0.0
          0.0013 -0.01365 0.0
          0 -0.01365 0.0
          0.039 -0.01495 0.0
          0.0377 -0.01495 0.0
          0.0364 -0.01495 0.0
          0.0351 -0.01495 0.0
          0.0338 -0.01495 0.0
          0.0325 -0.01495 0.0
          0.0312 -0.01495 0.0
          0.0299 -0.01495 0.0
          0.0286 -0.01495 0.0
          0.0273 -0.01495 0.0
          0.026 -0.01495 0.0
          0.0247 -0.01495 0.0
          0.0234 -0.01495 0.0
          0.0221 -0.01495 0.0