<?xml version="1.0"?>
<VTKFile type="UnstructuredGrid" version="0.1" byte_order="LittleEndian">
  <UnstructuredGrid>
    <Piece NumberOfPoints="961" NumberOfCells="900">
      <PointData Scalars="Temperature">
        <DataArray type="Float32" Name="Temperature" format="ascii">
          21.0035
          21.0592
          21.1168
          21.1741
          21.2223
          21.2541
          21.2667
          21.2667
          21.2637
          21.2652
          21.2715
          21.2775
          21.2778
          21.2726
          21.2674
          21.2676
          21.2731
          21.2784
          21.2782
          21.2723
          21.2661
          21.2648
          21.2682
          21.2688
          21.2577
          21.229
          21.1859
          21.1358
          21.0873
          21.0432
          21.0026
          21.0574
          21.9523
          22.9113
          23.8723
          24.7041
          25.2253
          25.4145
          25.3722
          25.295
          25.3185
          25.4471
          25.5688
          25.5735
          25.4638
          25.3542
          25.357
          25.4715
          25.5843
          25.5813
          25.4609
          25.3341
          25.3136
          25.3953
          25.4465
          25.2802
          24.8075
          24.0594
          23.216
          22.407
          21.698
          21.042
          21.1067
          22.7754
          24.5891
          26.7535
          28.5105
          29.6257
          29.8099
          29.5007
          29.1652
          29.2135
          29.6318
          30.0359
          30.0405
          29.6564
          29.2735
          29.2803
          29.6733
          30.0635
          30.0606
          29.6577
          29.2423
          29.2
          29.543
          29.8629
          29.7009
          28.6734
          27.0781
          25.1533
          23.6236
          22.3007
          21.0783
          21.1477
          23.4554
          25.9857
          29.0116
          34.45
          34.4506
          34.4508
          34.4505
          32.058
          32.1233
          34.6787
          34.679
          34.679
          34.6787
          32.1987
          32.2088
          34.7157
          34.716
          34.716
          34.7157
          32.1616
          32.1045
          34.5158
          34.5161
          34.5159
          34.5154
          29.4394
          26.7678
          24.6399
          22.8094
          21.1091
          21.1775
          23.944
          26.9197
          30.4432
          34.4513
          34.4515
          34.4517
          34.4517
          33.7483
          33.8244
          34.6798
          34.6799
          34.6799
          34.6798
          33.9066
          33.9189
          34.7168
          34.7169
          34.7169
          34.7168
          33.868
          33.8014
          34.517
          34.517
          34.5169
          34.5167
          30.9451
          27.8756
          25.3947
          23.1981
          21.1328
          21.1963
          24.2404
          27.4326
          30.8523
          34.4535
          34.4537
          34.4538
          34.4538
          34.2822
          34.3582
          34.6819
          34.6819
          34.6819
          34.6819
          34.4446
          34.4569
          34.7188
          34.7189
          34.7189
          34.7188
          34.4038
          34.3372
          34.5191
          34.5191
          34.519
          34.5188
          31.4197
          28.5199
          25.8867
          23.4658
          21.1494
          21.2064
          24.3951
          27.6555
          31.0183
          34.4567
          34.4569
          34.457
          34.457
          34.4522
          34.5281
          34.6849
          34.6849
          34.6849
          34.6849
          34.6158
          34.6281
          34.7219
          34.7219
          34.7219
          34.7219
          34.5743
          34.5078
          34.5223
          34.5222
          34.5221
          34.522
          31.6342
          28.8376
          26.1749
          23.6326
          21.16
          21.2113
          24.4669
          27.7557
          31.091
          34.4609
          34.4611
          34.4612
          34.4613
          34.5087
          34.5846
          34.6889
          34.6889
          34.6889
          34.6889
          34.6726
          34.6849
          34.7259
          34.7259
          34.7259
          34.7259
          34.6309
          34.5645
          34.5265
          34.5265
          34.5264
          34.5262
          31.7408
          29.0017
          26.3322
          23.729
          21.1662
          21.2136
          24.5
          27.8018
          31.1255
          34.4662
          34.4664
          34.4665
          34.4666
          34.5304
          34.6061
          34.6938
          34.6939
          34.6939
          34.6939
          34.6941
          34.7064
          34.7309
          34.7309
          34.7309
          34.7309
          34.6525
          34.5861
          34.5317
          34.5317
          34.5316
          34.5315
          31.7975
          29.0887
          26.4174
          23.7823
          21.1696
          21.2146
          24.5157
          27.8243
          31.1437
          34.4726
          34.4728
          34.4729
          34.4729
          34.5418
          34.6174
          34.6998
          34.6998
          34.6998
          34.6998
          34.7053
          34.7176
          34.7368
          34.7368
          34.7368
          34.7368
          34.6637
          34.5975
          34.538
          34.538
          34.5379
          34.5378
          31.8297
          29.1364
          26.464
          23.8115
          21.1716
          21.2152
          24.5239
          27.8365
          31.1553
          34.48
          34.4802
          34.4803
          34.4803
          34.5506
          34.6261
          34.7068
          34.7068
          34.7068
          34.7068
          34.7139
          34.7262
          34.7438
          34.7438
          34.7438
          34.7438
          34.6725
          34.6063
          34.5454
          34.5454
          34.5453
          34.5451
          31.8499
          29.164
          26.4903
          23.8279
          21.1726
          21.2155
          24.5289
          27.8446
          31.1643
          34.4885
          34.4887
          34.4888
          34.4888
          34.5594
          34.6348
          34.7148
          34.7148
          34.7148
          34.7148
          34.7224
          34.7347
          34.7518
          34.7518
          34.7518
          34.7518
          34.6811
          34.6151
          34.5538
          34.5537
          34.5537
          34.5535
          31.8641
          29.1813
          26.5061
          23.8376
          21.1733
          21.2157
          24.5326
          27.8511
          31.1727
          34.498
          34.4982
          34.4983
          34.4983
          34.5689
          34.6441
          34.7237
          34.7237
          34.7237
          34.7237
          34.7315
          34.7438
          34.7607
          34.7607
          34.7607
          34.7607
          34.6903
          34.6245
          34.5632
          34.5632
          34.5631
          34.5629
          31.8758
          29.1937
          26.5166
          23.8439
          21.1737
          21.2159
          24.5359
          27.8573
          31.1812
          34.5086
          34.5088
          34.5089
          34.5089
          34.5794
          34.6543
          34.7337
          34.7337
          34.7337
          34.7337
          34.7415
          34.7538
          34.7707
          34.7707
          34.7707
          34.7707
          34.7005
          34.6349
          34.5737
          34.5736
          34.5736
          34.5734
          31.8866
          29.2039
          26.5248
          23.8486
          21.174
          21.2161
          24.5393
          27.8637
          31.1903
          34.5202
          34.5204
          34.5205
          34.5206
          34.5908
          34.6654
          34.7446
          34.7446
          34.7446
          34.7446
          34.7524
          34.7648
          34.7816
          34.7816
          34.7816
          34.7816
          34.7117
          34.6462
          34.5852
          34.5852
          34.5851
          34.5849
          31.8975
          29.2135
          26.5323
          23.8528
          21.1742
          21.2164
          24.543
          27.8706
          31.2002
          34.5329
          34.5331
          34.5332
          34.5332
          34.6032
          34.6776
          34.7565
          34.7565
          34.7565
          34.7565
          34.7644
          34.7767
          34.7935
          34.7935
          34.7935
          34.7935
          34.7238
          34.6585
          34.5977
          34.5977
          34.5976
          34.5975
          31.9092
          29.2239
          26.5402
          23.8572
          21.1745
          21.2166
          24.5471
          27.8782
          31.211
          34.5467
          34.5468
          34.547
          34.547
          34.6167
          34.6908
          34.7694
          34.7694
          34.7694
          34.7694
          34.7773
          34.7896
          34.8065
          34.8065
          34.8065
          34.8065
          34.737
          34.6719
          34.6113
          34.6113
          34.6112
          34.6111
          31.9226
          29.2361
          26.5498
          23.8627
          21.1748
          21.2169
          24.5521
          27.8873
          31.2232
          34.5615
          34.5616
          34.5617
          34.5618
          34.6312
          34.705
          34.7833
          34.7833
          34.7833
          34.7833
          34.7912
          34.8035
          34.8204
          34.8204
          34.8204
          34.8204
          34.7511
          34.6863
          34.626
          34.6259
          34.6258
          34.6257
          31.9385
          29.2518
          26.5627
          23.8702
          21.1753
          21.2173
          24.5587
          27.8986
          31.2375
          34.5773
          34.5775
          34.5776
          34.5776
          34.6467
          34.7202
          34.7982
          34.7982
          34.7982
          34.7982
          34.8061
          34.8184
          34.8353
          34.8353
          34.8353
          34.8353
          34.7663
          34.7017
          34.6416
          34.6416
          34.6415
          34.6414
          31.9589
          29.274
          26.5819
          23.8817
          21.176
          21.2181
          24.5686
          27.9147
          31.2555
          34.5942
          34.5944
          34.5945
          34.5945
          34.6633
          34.7364
          34.8141
          34.8141
          34.8141
          34.8141
          34.822
          34.8343
          34.8512
          34.8512
          34.8512
          34.8512
          34.7824
          34.7182
          34.6584
          34.6583
          34.6582
          34.6581
          31.987
          29.308
          26.613
          23.9007
          21.1774
          21.2188
          24.5858
          27.9408
          31.2808
          34.6122
          34.6123
          34.6125
          34.6125
          34.6809
          34.7537
          34.8309
          34.831
          34.831
          34.831
          34.8389
          34.8512
          34.868
          34.868
          34.868
          34.868
          34.7996
          34.7356
          34.6761
          34.6761
          34.676
          34.6758
          32.0289
          29.3639
          26.6661
          23.9341
          21.1791
          21.2229
          24.6183
          27.9889
          31.3218
          34.6312
          34.6313
          34.6315
          34.6315
          34.6995
          34.7719
          34.8488
          34.8488
          34.8488
          34.8488
          34.8568
          34.8692
          34.8859
          34.8859
          34.8859
          34.8859
          34.8178
          34.7542
          34.6949
          34.6949
          34.6948
          34.6946
          32.0962
          29.4608
          26.7615
          23.9939
          21.185
          21.219
          24.6899
          28.0846
          31.3973
          34.6512
          34.6514
          34.6515
          34.6516
          34.7192
          34.7912
          34.8676
          34.8676
          34.8677
          34.8677
          34.876
          34.8883
          34.9048
          34.9048
          34.9047
          34.9047
          34.837
          34.7738
          34.7148
          34.7147
          34.7146
          34.7144
          32.2097
          29.6346
          26.9356
          24.1094
          21.1838
          21.2674
          24.828
          28.2944
          31.547
          34.6721
          34.6724
          34.6727
          34.6729
          34.7401
          34.8114
          34.8872
          34.8874
          34.8876
          34.8878
          34.8967
          34.909
          34.9248
          34.9247
          34.9245
          34.9244
          34.8574
          34.7946
          34.7358
          34.7357
          34.7354
          34.7351
          32.4061
          29.949
          27.2686
          24.3142
          21.2365
          21.1215
          25.222
          28.7294
          31.8656
          34.6939
          34.6943
          34.6951
          34.6955
          34.7624
          34.8328
          34.9075
          34.9079
          34.9087
          34.9091
          34.9198
          34.9321
          34.946
          34.9457
          34.9452
          34.9449
          34.8791
          34.8171
          34.7582
          34.7578
          34.757
          34.7566
          32.7376
          30.5256
          27.8847
          24.8034
          21.0958
          21.9334
          25.8023
          29.8045
          32.4809
          34.7155
          34.7168
          34.719
          34.7202
          34.7871
          34.8555
          34.9274
          34.9289
          34.9314
          34.9328
          34.9479
          34.9598
          34.969
          34.9681
          34.9664
          34.9655
          34.903
          34.8426
          34.7827
          34.7814
          34.7792
          34.7779
          33.2538
          31.5105
          29.2057
          25.5085
          21.9178
          18.7387
          29.0304
          31.8441
          33.4722
          34.7354
          34.7382
          34.7461
          34.7489
          34.8184
          34.8796
          34.945
          34.9483
          34.9575
          34.9609
          34.9873
          34.9979
          34.9952
          34.993
          34.9871
          34.985
          34.9302
          34.8758
          34.8111
          34.8083
          34.8003
          34.7974
          33.9618
          32.9777
          31.5497
          28.8951
          18.7215
          34.6927
          34.7115
          34.7255
          34.7384
          34.7483
          34.7562
          34.7715
          34.8006
          34.8637
          34.9083
          34.9479
          34.9665
          34.9849
          35.0096
          35.0491
          35.0566
          35.035
          35.019
          35.0073
          34.9955
          34.9657
          34.9249
          34.8628
          34.8336
          34.8179
          34.8094
          34.7983
          34.7848
          34.7712
          34.757
          34.738
          34.7002
          34.7134
          34.7264
          34.7392
          34.7527
          34.7689
          34.7912
          34.8247
          34.8661
          34.9113
          34.9514
          34.9857
          35.0139
          35.0397
          35.0589
          35.0663
          35.0608
          35.0472
          35.0296
          35.0048
          34.9709
          34.9285
          34.8873
          34.8534
          34.8304
          34.8134
          34.799
          34.7852
          34.7719
          34.7588
          34.7456
          34.7087
          34.717
          34.7279
          34.7411
          34.7567
          34.7761
          34.8013
          34.8336
          34.8726
          34.9168
          34.9662
          35.0117
          35.0457
          35.0709
          35.0875
          35.0943
          35.0912
          35.0792
          35.0587
          35.0283
          34.9849
          34.9376
          34.897
          34.8637
          34.8375
          34.8172
          34.8005
          34.786
          34.7732
          34.7623
          34.754
          34.7149
          34.7185
          34.7287
          34.7419
          34.7582
          34.7785
          34.8042
          34.8364
          34.8749
          34.9198
          34.9751
          35.0272
          35.0631
          35.0885
          35.1047
          35.1115
          35.1088
          35.0969
          35.0757
          35.0433
          34.9939
          34.9413
          34.9002
          34.8667
          34.8399
          34.8186
          34.8012
          34.7864
          34.7738
          34.7638
          34.7602
        </DataArray>
      </PointData>
      <CellData>
      </CellData>
      <Points>
        <DataArray type="Float32" NumberOfComponents="3" format="ascii">
          0.039 0.00195 0.0
          0.0377 0.00195 0.0
          0.0364 0.00195 0.0
          0.0351 0.00195 0.0
          0.0338 0.00195 0.0
          0.0325 0.00195 0.0
          0.0312 0.00195 0.0
          0.0299 0.00195 0.0
          0.0286 0.00195 0.0
          0.0273 0.00195 0.0
          0.026 0.00195 0.0
          0.0247 0.00195 0.0
          0.0234 0.00195 0.0
          0.0221 0.00195 0.0
          0.0208 0.00195 0.0
          0.0195 0.00195 0.0
          0.0182 0.00195 0.0
          0.0169 0.00195 0.0
          0.0156 0.00195 0.0
          0.0143 0.00195 0.0
          0.013 0.00195 0.0
          0.0117 0.00195 0.0
          0.0104 0.00195 0.0
          0.0091 0.00195 0.0
          0.0078 0.00195 0.0
          0.0065 0.00195 0.0
          0.0052 0.00195 0.0
          0.0039 0.00195 0.0
          0.0026 0.00195 0.0
          0.0013 0.00195 0.0
          0 0.00195 0.0
          0.039 0.00065 0.0
          0.0377 0.00065 0.0
          0.0364 0.00065 0.0
          0.0351 0.00065 0.0
          0.0338 0.00065 0.0
          0.0325 0.00065 0.0
          0.0312 0.00065 0.0
          0.0299 0.00065 0.0
          0.0286 0.00065 0.0
          0.0273 0.00065 0.0
          0.026 0.00065 0.0
          0.0247 0.00065 0.0
          0.0234 0.00065 0.0
          0.0221 0.00065 0.0
          0.0208 0.00065 0.0
          0.0195 0.00065 0.0
          0.0182 0.00065 0.0
          0.0169 0.00065 0.0
          0.0156 0.00065 0.0
          0.0143 0.00065 0.0
          0.013 0.00065 0.0
          0.0117 0.00065 0.0
          0.0104 0.00065 0.0
          0.0091 0.00065 0.0
          0.0078 0.00065 0.0
          0.0065 0.00065 0.0
          0.0052 0.00065 0.0
          0.0039 0.00065 0.0
          0.0026 0.00065 0.0
          0.0013 0.00065 0.0
          0 0.00065 0.0
          0.039 -0.00065 0.0
          0.0377 -0.00065 0.0
          0.0364 -0.00065 0.0
          0.0351 -0.00065 0.0
          0.0338 -0.00065 0.0
          0.0325 -0.00065 0.0
          0.0312 -0.00065 0.0
          0.0299 -0.00065 0.0
          0.0286 -0.00065 0.0
          0.0273 -0.00065 0.0
          0.026 -0.00065 0.0
          0.0247 -0.00065 0.0
          0.0234 -0.00065 0.0
          0.0221 -0.00065 0.0
          0.0208 -0.00065 0.0
          0.0195 -0.00065 0.0
          0.0182 -0.00065 0.0
          0.0169 -0.00065 0.0
          0.0156 -0.00065 0.0
          0.0143 -0.00065 0.0
          0.013 -0.00065 0.0
          0.0117 -0.00065 0.0
          0.0104 -0.00065 0.0
          0.0091 -0.00065 0.0
          0.0078 -0.00065 0.0
          0.0065 -0.00065 0.0
          0.0052 -0.00065 0.0
          0.0039 -0.00065 0.0
          0.0026 -0.00065 0.0
          0.0013 -0.00065 0.0
          0 -0.00065 0.0
          0.039 -0.00195 0.0
          0.0377 -0.00195 0.0
          0.0364 -0.00195 0.0
          0.0351 -0.00195 0.0
          0.0338 -0.00195 0.0
          0.0325 -0.00195 0.0
          0.0312 -0.00195 0.0
          0.0299 -0.00195 0.0
          0.0286 -0.00195 0.0
          0.0273 -0.00195 0.0
          0.026 -0.00195 0.0
          0.0247 -0.00195 0.0
          0.0234 -0.00195 0.0
          0.0221 -0.00195 0.0
          0.0208 -0.00195 0.0
          0.0195 -0.00195 0.0
          0.0182 -0.00195 0.0
          0.0169 -0.00195 0.0
          0.0156 -0.00195 0.0
          0.0143 -0.00195 0.0
          0.013 -0.00195 0.0
          0.0117 -0.00195 0.0
          0.0104 -0.00195 0.0
          0.0091 -0.00195 0.0
          0.0078 -0.00195 0.0
          0.0065 -0.00195 0.0
          0.0052 -0.00195 0.0
          0.0039 -0.00195 0.0
          0.0026 -0.00195 0.0
          0.0013 -0.00195 0.0
          0 -0.00195 0.0
          0.039 -0.00325 0.0
          0.0377 -0.00325 0.0
          0.0364 -0.00325 0.0
          0.0351 -0.00325 0.0
          0.0338 -0.00325 0.0
          0.0325 -0.00325 0.0
          0.0312 -0.00325 0.0
          0.0299 -0.00325 0.0
          0.0286 -0.00325 0.0
          0.0273 -0.00325 0.0
          0.026 -0.00325 0.0
          0.0247 -0.00325 0.0
          0.0234 -0.00325 0.0
          0.0221 -0.00325 0.0
          0.0208 -0.00325 0.0
          0.0195 -0.00325 0.0
          0.0182 -0.00325 0.0
          0.0169 -0.00325 0.0
          0.0156 -0.00325 0.0
          0.0143 -0.00325 0.0
          0.013 -0.00325 0.0
          0.0117 -0.00325 0.0
          0.0104 -0.00325 0.0
          0.0091 -0.00325 0.0
          0.0078 -0.00325 0.0
          0.0065 -0.00325 0.0
          0.0052 -0.00325 0.0
          0.0039 -0.00325 0.0
          0.0026 -0.00325 0.0
          0.0013 -0.00325 0.0
          0 -0.00325 0.0
          0.039 -0.00455 0.0
          0.0377 -0.00455 0.0
          0.0364 -0.00455 0.0
          0.0351 -0.00455 0.0
          0.0338 -0.00455 0.0
          0.0325 -0.00455 0.0
          0.0312 -0.00455 0.0
          0.0299 -0.00455 0.0
          0.0286 -0.00455 0.0
          0.0273 -0.00455 0.0
          0.026 -0.00455 0.0
          0.0247 -0.00455 0.0
          0.0234 -0.00455 0.0
          0.0221 -0.00455 0.0
          0.0208 -0.00455 0.0
          0.0195 -0.00455 0.0
          0.0182 -0.00455 0.0
          0.0169 -0.00455 0.0
          0.0156 -0.00455 0.0
          0.0143 -0.00455 0.0
          0.013 -0.00455 0.0
          0.0117 -0.00455 0.0
          0.0104 -0.00455 0.0
          0.0091 -0.00455 0.0
          0.0078 -0.00455 0.0
          0.0065 -0.00455 0.0
          0.0052 -0.00455 0.0
          0.0039 -0.00455 0.0
          0.0026 -0.00455 0.0
          0.0013 -0.00455 0.0
          0 -0.00455 0.0
          0.039 -0.00585 0.0
          0.0377 -0.00585 0.0
          0.0364 -0.00585 0.0
          0.0351 -0.00585 0.0
          0.0338 -0.00585 0.0
          0.0325 -0.00585 0.0
          0.0312 -0.00585 0.0
          0.0299 -0.00585 0.0
          0.0286 -0.00585 0.0
          0.0273 -0.00585 0.0
          0.026 -0.00585 0.0
          0.0247 -0.00585 0.0
          0.0234 -0.00585 0.0
          0.0221 -0.00585 0.0
          0.0208 -0.00585 0.0
          0.0195 -0.00585 0.0
          0.0182 -0.00585 0.0
          0.0169 -0.00585 0.0
          0.0156 -0.00585 0.0
          0.0143 -0.00585 0.0
          0.013 -0.00585 0.0
          0.0117 -0.00585 0.0
          0.0104 -0.00585 0.0
          0.0091 -0.00585 0.0
          0.0078 -0.00585 0.0
          0.0065 -0.00585 0.0
          0.0052 -0.00585 0.0
          0.0039 -0.00585 0.0
          0.0026 -0.00585 0.0
          0.0013 -0.00585 0.0
          0 -0.00585 0.0
          0.039 -0.00715 0.0
          0.0377 -0.00715 0.0
          0.0364 -0.00715 0.0
          0.0351 -0.00715 0.0
          0.0338 -0.00715 0.0
          0.0325 -0.00715 0.0
          0.0312 -0.00715 0.0
          0.0299 -0.00715 0.0
          0.0286 -0.00715 0.0
          0.0273 -0.00715 0.0
          0.026 -0.00715 0.0
          0.0247 -0.00715 0.0
          0.0234 -0.00715 0.0
          0.0221 -0.00715 0.0
          0.0208 -0.00715 0.0
          0.0195 -0.00715 0.0
          0.0182 -0.00715 0.0
          0.0169 -0.00715 0.0
          0.0156 -0.00715 0.0
          0.0143 -0.00715 0.0
          0.013 -0.00715 0.0
          0.0117 -0.00715 0.0
          0.0104 -0.00715 0.0
          0.0091 -0.00715 0.0
          0.0078 -0.00715 0.0
          0.0065 -0.00715 0.0
          0.0052 -0.00715 0.0
          0.0039 -0.00715 0.0
          0.0026 -0.00715 0.0
          0.0013 -0.00715 0.0
          0 -0.00715 0.0
          0.039 -0.00845 0.0
          0.0377 -0.00845 0.0
          0.0364 -0.00845 0.0
          0.0351 -0.00845 0.0
          0.0338 -0.00845 0.0
          0.0325 -0.00845 0.0
          0.0312 -0.00845 0.0
          0.0299 -0.00845 0.0
          0.0286 -0.00845 0.0
          0.0273 -0.00845 0.0
          0.026 -0.00845 0.0
          0.0247 -0.00845 0.0
          0.0234 -0.00845 0.0
          0.0221 -0.00845 0.0
          0.0208 -0.00845 0.0
          0.0195 -0.00845 0.0
          0.0182 -0.00845 0.0
          0.0169 -0.00845 0.0
          0.0156 -0.00845 0.0
          0.0143 -0.00845 0.0
          0.013 -0.00845 0.0
          0.0117 -0.00845 0.0
          0.0104 -0.00845 0.0
          0.0091 -0.00845 0.0
          0.0078 -0.00845 0.0
          0.0065 -0.00845 0.0
          0.0052 -0.00845 0.0
          0.0039 -0.00845 0.0
          0.0026 -0.00845 0.0
          0.0013 -0.00845 0.0
          0 -0.00845 0.0
          0.039 -0.00975 0.0
          0.0377 -0.00975 0.0
          0.0364 -0.00975 0.0
          0.0351 -0.00975 0.0
          0.0338 -0.00975 0.0
          0.0325 -0.00975 0.0
          0.0312 -0.00975 0.0
          0.0299 -0.00975 0.0
          0.0286 -0.00975 0.0
          0.0273 -0.00975 0.0
          0.026 -0.00975 0.0
          0.0247 -0.00975 0.0
          0.0234 -0.00975 0.0
          0.0221 -0.00975 0.0
          0.0208 -0.00975 0.0
          0.0195 -0.00975 0.0
          0.0182 -0.00975 0.0
          0.0169 -0.00975 0.0
          0.0156 -0.00975 0.0
          0.0143 -0.00975 0.0
          0.013 -0.00975 0.0
          0.0117 -0.00975 0.0
          0.0104 -0.00975 0.0
          0.0091 -0.00975 0.0
          0.0078 -0.00975 0.0
          0.0065 -0.00975 0.0
          0.0052 -0.00975 0.0
          0.0039 -0.00975 0.0
          0.0026 -0.00975 0.0
          0.0013 -0.00975 0.0
          0 -0.00975 0.0
          0.039 -0.01105 0.0
          0.0377 -0.01105 0.0
          0.0364 -0.01105 0.0
          0.0351 -0.01105 0.0
          0.0338 -0.01105 0.0
          0.0325 -0.01105 0.0
          0.0312 -0.01105 0.0
          0.0299 -0.01105 0.0
          0.0286 -0.01105 0.0
          0.0273 -0.01105 0.0
          0.026 -0.01105 0.0
          0.0247 -0.01105 0.0
          0.0234 -0.01105 0.0
          0.0221 -0.01105 0.0
          0.0208 -0.01105 0.0
          0.0195 -0.01105 0.0
          0.0182 -0.01105 0.0
          0.0169 -0.01105 0.0
          0.0156 -0.01105 0.0
          0.0143 -0.01105 0.0
          0.013 -0.01105 0.0
          0.0117 -0.01105 0.0
          0.0104 -0.01105 0.0
          0.0091 -0.01105 0.0
          0.0078 -0.01105 0.0
          0.0065 -0.01105 0.0
          0.0052 -0.01105 0.0
          0.0039 -0.01105 0.0
          0.0026 -0.01105 0.0
          0.0013 -0.01105 0.0
          0 -0.01105 0.0
          0.039 -0.01235 0.0
          0.0377 -0.01235 0.0
          0.0364 -0.01235 0.0
          0.0351 -0.01235 0.0
          0.0338 -0.01235 0.0
          0.0325 -0.01235 0.0
          0.0312 -0.01235 0.0
          0.0299 -0.01235 0.0
          0.0286 -0.01235 0.0
          0.0273 -0.01235 0.0
          0.026 -0.01235 0.0
          0.0247 -0.01235 0.0
          0.0234 -0.01235 0.0
          0.0221 -0.01235 0.0
          0.0208 -0.01235 0.0
          0.0195 -0.01235 0.0
          0.0182 -0.01235 0.0
          0.0169 -0.01235 0.0
          0.0156 -0.01235 0.0
          0.0143 -0.01235 0.0
          0.013 -0.01235 0.0
          0.0117 -0.01235 0.0
          0.0104 -0.01235 0.0
          0.0091 -0.01235 0.0
          0.0078 -0.01235 0.0
          0.0065 -0.01235 0.0
          0.0052 -0.01235 0.0
          0.0039 -0.01235 0.0
          0.0026 -0.01235 0.0
          0.0013 -0.01235 0.0
          0 -0.01235 0.0
          0.039 -0.01365 0.0
          0.0377 -0.01365 0.0
          0.0364 -0.01365 0.0
          0.0351 -0.01365 0.0
          0.0338 -0.01365 0.0
          0.0325 -0.01365 0.0
          0.0312 -0.01365 0.0
          0.0299 -0.01365 0.0
          0.0286 -0.01365 0.0
          0.0273 -0.01365 0.0
          0.026 -0.01365 0.0
          0.0247 -0.01365 0.0
          0.0234 -0.01365 0.0
          0.0221 -0.01365 0.0
          0.0208 -0.01365 0.0
          0.0195 -0.01365 0.0
          0.0182 -0.01365 0.0
          0.0169 -0.01365 0.0
          0.0156 -0.01365 0.0
          0.0143 -0.01365 0.0
          0.013 -0.01365 0.0
          0.0117 -0.01365 0.0
          0.0104 -0.01365 0.0
          0.0091 -0.01365 0.0
          0.0078 -0.01365 0.0
          0.0065 -0.01365 0.0
          0.0052 -0.01365 0.0
          0.0039 -0.01365 0.0
          0.0026 -0.01365 0.0
          0.0013 -0.01365 0.0
          0 -0.01365 0.0
          0.039 -0.01495 0.0
          0.0377 -0.01495 0.0
          0.0364 -0.01495 0.0
          0.0351 -0.01495 0.0
          0.0338 -0.01495 0.0
          0.0325 -0.01495 0.0
          0.0312 -0.01495 0.0
          0.0299 -0.01495 0.0
          0.0286 -0.01495 0.0
          0.0273 -0.01495 0.0
          0.026 -0.01495 0.0
          0.0247 -0.01495 0.0
          0.0234 -0.01495 0.0
          0.0221 -0.01495 0.0