<?xml version="1.0"?>
<VTKFile type="UnstructuredGrid" version="0.1" byte_order="LittleEndian">
  <UnstructuredGrid>
    <Piece NumberOfPoints="961" NumberOfCells="900">
      <PointData Scalars="Temperature">
        <DataArray type="Float32" Name="Temperature" format="ascii">
          21.0008
          21.0135
          21.0267
          21.0399
          21.0509
          21.0583
          21.0613
          21.0616
          21.0614
          21.0623
          21.0643
          21.0661
          21.0663
          21.0652
          21.0641
          21.0642
          21.0656
          21.0669
          21.0668
          21.0651
          21.0632
          21.0624
          21.0628
          21.0627
          21.0599
          21.0532
          21.0432
          21.0315
          21.0202
          21.01
          21.0006
          21.0131
          21.2178
          21.4375
          21.6578
          21.849
          21.9693
          22.0148
          22.0097
          22.0001
          22.0155
          22.0547
          22.0889
          22.0926
          22.0678
          22.0433
          22.0459
          22.0753
          22.103
          22.1008
          22.0676
          22.0298
          22.0162
          22.0283
          22.0362
          21.9956
          21.8848
          21.7104
          21.514
          21.3261
          21.1617
          21.0097
          21.0244
          21.4062
          21.8217
          22.3186
          22.7225
          22.9796
          23.024
          22.961
          22.8996
          22.9355
          23.0524
          23.1586
          23.1623
          23.072
          22.9831
          22.9897
          23.0884
          23.1844
          23.1823
          23.077
          22.9621
          22.9306
          22.9969
          23.0645
          23.0249
          22.7845
          22.4123
          21.9637
          21.6081
          21.3013
          21.0181
          21.0338
          21.562
          22.1419
          22.837
          24.0897
          24.0899
          24.0899
          24.0899
          23.5724
          23.6241
          24.2769
          24.277
          24.277
          24.2769
          23.6855
          23.6952
          24.3127
          24.3128
          24.3128
          24.3127
          23.6597
          23.6144
          24.1487
          24.1488
          24.1488
          24.1486
          22.9619
          22.3389
          21.844
          21.4192
          21.0253
          21.0406
          21.6741
          22.3564
          23.1663
          24.0905
          24.0905
          24.0906
          24.0906
          23.9659
          24.0282
          24.2776
          24.2776
          24.2776
          24.2776
          24.0964
          24.1084
          24.3134
          24.3134
          24.3134
          24.3134
          24.0691
          24.0144
          24.1495
          24.1495
          24.1494
          24.1494
          23.313
          22.5966
          22.0194
          21.5095
          21.0308
          21.045
          21.7423
          22.4747
          23.2612
          24.0924
          24.0924
          24.0924
          24.0924
          24.0926
          24.1549
          24.2795
          24.2795
          24.2795
          24.2795
          24.2273
          24.2392
          24.3153
          24.3153
          24.3153
          24.3153
          24.1976
          24.1429
          24.1513
          24.1513
          24.1513
          24.1513
          23.4244
          22.7471
          22.1341
          21.5718
          21.0346
          21.0473
          21.7784
          22.5269
          23.3009
          24.0954
          24.0954
          24.0955
          24.0955
          24.1347
          24.197
          24.2825
          24.2825
          24.2825
          24.2825
          24.2707
          24.2827
          24.3183
          24.3183
          24.3183
          24.3183
          24.2403
          24.1857
          24.1544
          24.1543
          24.1543
          24.1543
          23.476
          22.8221
          22.2018
          21.611
          21.0371
          21.0485
          21.7956
          22.5514
          23.32
          24.0996
          24.0996
          24.0996
          24.0996
          24.1512
          24.2135
          24.2866
          24.2866
          24.2866
          24.2866
          24.2875
          24.2995
          24.3224
          24.3224
          24.3224
          24.3224
          24.2569
          24.2023
          24.1585
          24.1585
          24.1585
          24.1585
          23.5033
          22.8621
          22.2395
          21.634
          21.0386
          21.0491
          21.8042
          22.5641
          23.331
          24.1049
          24.1049
          24.105
          24.105
          24.1603
          24.2226
          24.2919
          24.2919
          24.2919
          24.2919
          24.2968
          24.3088
          24.3277
          24.3277
          24.3277
          24.3277
          24.2661
          24.2115
          24.1639
          24.1639
          24.1638
          24.1638
          23.5197
          22.8847
          22.2609
          21.6471
          21.0395
          21.0494
          21.8092
          22.5717
          23.3389
          24.1114
          24.1114
          24.1115
          24.1115
          24.168
          24.2303
          24.2983
          24.2983
          24.2983
          24.2983
          24.3045
          24.3165
          24.3342
          24.3342
          24.3342
          24.3342
          24.2738
          24.2192
          24.1704
          24.1703
          24.1703
          24.1703
          23.5312
          22.8988
          22.2737
          21.655
          21.04
          21.0496
          21.8126
          22.5776
          23.346
          24.119
          24.1191
          24.1191
          24.1191
          24.176
          24.2383
          24.3059
          24.3059
          24.3059
          24.3059
          24.3125
          24.3244
          24.3418
          24.3418
          24.3418
          24.3418
          24.2818
          24.2272
          24.178
          24.178
          24.178
          24.1779
          23.5406
          22.9087
          22.2822
          21.66
          21.0403
          21.0498
          21.8155
          22.5829
          23.3533
          24.1279
          24.1279
          24.1279
          24.1279
          24.1849
          24.2472
          24.3147
          24.3147
          24.3147
          24.3147
          24.3214
          24.3333
          24.3505
          24.3505
          24.3505
          24.3505
          24.2907
          24.2361
          24.1868
          24.1868
          24.1868
          24.1867
          23.5494
          22.9169
          22.2886
          21.6637
          21.0405
          21.05
          21.8184
          22.5883
          23.3611
          24.1378
          24.1379
          24.1379
          24.1379
          24.1949
          24.2571
          24.3246
          24.3246
          24.3246
          24.3246
          24.3313
          24.3432
          24.3604
          24.3604
          24.3604
          24.3604
          24.3006
          24.2461
          24.1968
          24.1968
          24.1967
          24.1967
          23.5583
          22.9244
          22.2943
          21.6668
          21.0407
          21.0502
          21.8215
          22.5942
          23.3696
          24.1489
          24.149
          24.149
          24.149
          24.206
          24.2682
          24.3356
          24.3356
          24.3356
          24.3356
          24.3423
          24.3543
          24.3715
          24.3715
          24.3715
          24.3715
          24.3117
          24.2572
          24.2079
          24.2079
          24.2078
          24.2078
          23.5678
          22.9321
          22.2997
          21.6697
          21.0409
          21.0504
          21.8248
          22.6005
          23.3789
          24.1612
          24.1613
          24.1613
          24.1613
          24.2183
          24.2804
          24.3478
          24.3478
          24.3478
          24.3478
          24.3545
          24.3665
          24.3837
          24.3837
          24.3837
          24.3837
          24.3239
          24.2694
          24.2201
          24.2201
          24.2201
          24.2201
          23.578
          22.9401
          22.3054
          21.6727
          21.0411
          21.0506
          21.8284
          22.6075
          23.3891
          24.1747
          24.1747
          24.1747
          24.1747
          24.2317
          24.2938
          24.3611
          24.3611
          24.3611
          24.3611
          24.3679
          24.3798
          24.397
          24.397
          24.397
          24.397
          24.3373
          24.2828
          24.2336
          24.2336
          24.2335
          24.2335
          23.5892
          22.9489
          22.3115
          21.6759
          21.0413
          21.0508
          21.8323
          22.615
          23.4002
          24.1893
          24.1893
          24.1893
          24.1893
          24.2462
          24.3083
          24.3756
          24.3756
          24.3756
          24.3756
          24.3823
          24.3943
          24.4115
          24.4115
          24.4115
          24.4115
          24.3518
          24.2974
          24.2482
          24.2481
          24.2481
          24.2481
          23.6015
          22.9587
          22.3184
          21.6796
          21.0415
          21.0511
          21.8367
          22.6234
          23.4124
          24.205
          24.2051
          24.2051
          24.2051
          24.2619
          24.324
          24.3912
          24.3912
          24.3912
          24.3912
          24.398
          24.4099
          24.4271
          24.4271
          24.4271
          24.4271
          24.3675
          24.3131
          24.2639
          24.2639
          24.2639
          24.2638
          23.6152
          22.9699
          22.3266
          21.684
          21.0418
          21.0514
          21.8417
          22.6328
          23.4257
          24.2219
          24.222
          24.222
          24.222
          24.2788
          24.3408
          24.408
          24.408
          24.408
          24.408
          24.4147
          24.4267
          24.4439
          24.4439
          24.4439
          24.4439
          24.3843
          24.33
          24.2808
          24.2808
          24.2807
          24.2807
          23.6307
          22.9833
          22.3366
          21.6896
          21.0421
          21.0518
          21.8478
          22.6438
          23.4406
          24.24
          24.24
          24.2401
          24.2401
          24.2968
          24.3588
          24.4259
          24.4259
          24.4259
          24.4259
          24.4327
          24.4447
          24.4618
          24.4618
          24.4618
          24.4618
          24.4023
          24.348
          24.2988
          24.2988
          24.2988
          24.2988
          23.6488
          23.0002
          22.35
          21.6973
          21.0426
          21.0522
          21.8559
          22.6578
          23.458
          24.2592
          24.2593
          24.2593
          24.2593
          24.316
          24.3779
          24.445
          24.445
          24.445
          24.445
          24.4518
          24.4638
          24.4809
          24.4809
          24.4809
          24.4809
          24.4214
          24.3671
          24.318
          24.318
          24.318
          24.318
          23.6711
          23.023
          22.3693
          21.7087
          21.0433
          21.0535
          21.8681
          22.6776
          23.4799
          24.2796
          24.2796
          24.2797
          24.2797
          24.3363
          24.3981
          24.4651
          24.4652
          24.4652
          24.4652
          24.4721
          24.4841
          24.5012
          24.5011
          24.5011
          24.5011
          24.4417
          24.3875
          24.3384
          24.3384
          24.3383
          24.3383
          23.7005
          23.0567
          22.3995
          21.7269
          21.0449
          21.0528
          21.8901
          22.7096
          23.5111
          24.3011
          24.3011
          24.3012
          24.3013
          24.3578
          24.4195
          24.4865
          24.4865
          24.4866
          24.4866
          24.4938
          24.5057
          24.5226
          24.5225
          24.5225
          24.5225
          24.4632
          24.409
          24.3599
          24.3599
          24.3598
          24.3598
          23.7421
          23.1101
          22.4497
          21.7593
          21.0448
          21.0651
          21.9288
          22.7703
          23.5611
          24.3237
          24.3238
          24.324
          24.3241
          24.3806
          24.4421
          24.5088
          24.5089
          24.5092
          24.5093
          24.5171
          24.529
          24.5452
          24.5451
          24.545
          24.5449
          24.4859
          24.4319
          24.3827
          24.3826
          24.3824
          24.3823
          23.8051
          23.1993
          22.5402
          21.8142
          21.0583
          21.0291
          22.0312
          22.8873
          23.6537
          24.3471
          24.3474
          24.348
          24.3483
          24.4049
          24.4659
          24.5319
          24.5323
          24.5331
          24.5335
          24.543
          24.5549
          24.5692
          24.5689
          24.5684
          24.5682
          24.5102
          24.4566
          24.4069
          24.4066
          24.4061
          24.4057
          23.9026
          23.3547
          22.702
          21.9407
          21.0232
          21.231
          22.1801
          23.1637
          23.8203
          24.3709
          24.3719
          24.3736
          24.3745
          24.4317
          24.4912
          24.555
          24.5563
          24.5587
          24.56
          24.574
          24.5856
          24.5951
          24.5942
          24.5928
          24.5919
          24.5367
          24.4843
          24.4332
          24.4322
          24.4304
          24.4294
          24.047
          23.6134
          23.0414
          22.1217
          21.2298
          20.4381
          22.9871
          23.6807
          24.081
          24.3936
          24.3958
          24.402
          24.4042
          24.465
          24.5186
          24.576
          24.5791
          24.5877
          24.5908
          24.6165
          24.6269
          24.6241
          24.6221
          24.6168
          24.6148
          24.5672
          24.5197
          24.4629
          24.4606
          24.4542
          24.4519
          24.2405
          23.9948
          23.6389
          22.9765
          20.4276
          24.3999
          24.4049
          24.4094
          24.4138
          24.4133
          24.4163
          24.4283
          24.4545
          24.5122
          24.5518
          24.5848
          24.6004
          24.6176
          24.6422
          24.6823
          24.6896
          24.6669
          24.6507
          24.64
          24.6309
          24.6073
          24.5709
          24.5137
          24.4872
          24.4746
          24.4709
          24.4699
          24.4644
          24.4592
          24.4544
          24.4492
          24.4018
          24.4055
          24.4099
          24.4147
          24.4209
          24.4311
          24.4487
          24.4777
          24.5146
          24.555
          24.591
          24.622
          24.6485
          24.6733
          24.6922
          24.6994
          24.6938
          24.6808
          24.6648
          24.6427
          24.6127
          24.5747
          24.5376
          24.5078
          24.4893
          24.4782
          24.4708
          24.4648
          24.4594
          24.4548
          24.4511
          24.404
          24.4065
          24.4107
          24.4169
          24.4258
          24.4392
          24.4592
          24.4867
          24.5211
          24.5611
          24.6068
          24.6492
          24.6812
          24.7052
          24.7211
          24.7278
          24.725
          24.7139
          24.6951
          24.6673
          24.6273
          24.5839
          24.5474
          24.5186
          24.4975
          24.483
          24.4729
          24.4655
          24.4599
          24.4558
          24.4533
          24.4056
          24.407
          24.4112
          24.4178
          24.4275
          24.4419
          24.4623
          24.4895
          24.5235
          24.5643
          24.616
          24.6652
          24.6989
          24.7231
          24.7386
          24.7452
          24.7428
          24.7319
          24.7124
          24.6825
          24.6364
          24.5876
          24.5507
          24.5218
          24.5002
          24.4847
          24.4737
          24.4659
          24.4601
          24.4562
          24.4548
        </DataArray>
      </PointData>
      <CellData>
      </CellData>
      <Points>
        <DataArray type="Float32" NumberOfComponents="3" format="ascii">
          0.039 0.00195 0.0
          0.0377 0.00195 0.0
          0.0364 0.00195 0.0
          0.0351 0.00195 0.0
          0.0338 0.00195 0.0
          0.0325 0.00195 0.0
          0.0312 0.00195 0.0
          0.0299 0.00195 0.0
          0.0286 0.00195 0.0
          0.0273 0.00195 0.0
          0.026 0.00195 0.0
          0.0247 0.00195 0.0
          0.0234 0.00195 0.0
          0.0221 0.00195 0.0
          0.0208 0.00195 0.0
          0.0195 0.00195 0.0
          0.0182 0.00195 0.0
          0.0169 0.00195 0.0
          0.0156 0.00195 0.0
          0.0143 0.00195 0.0
          0.013 0.00195 0.0
          0.0117 0.00195 0.0
          0.0104 0.00195 0.0
          0.0091 0.00195 0.0
          0.0078 0.00195 0.0
          0.0065 0.00195 0.0
          0.0052 0.00195 0.0
          0.0039 0.00195 0.0
          0.0026 0.00195 0.0
          0.0013 0.00195 0.0
          0 0.00195 0.0
          0.039 0.00065 0.0
          0.0377 0.00065 0.0
          0.0364 0.00065 0.0
          0.0351 0.00065 0.0
          0.0338 0.00065 0.0
          0.0325 0.00065 0.0
          0.0312 0.00065 0.0
          0.0299 0.00065 0.0
          0.0286 0.00065 0.0
          0.0273 0.00065 0.0
          0.026 0.00065 0.0
          0.0247 0.00065 0.0
          0.0234 0.00065 0.0
          0.0221 0.00065 0.0
          0.0208 0.00065 0.0
          0.0195 0.00065 0.0
          0.0182 0.00065 0.0
          0.0169 0.00065 0.0
          0.0156 0.00065 0.0
          0.0143 0.00065 0.0
          0.013 0.00065 0.0
          0.0117 0.00065 0.0
          0.0104 0.00065 0.0
          0.0091 0.00065 0.0
          0.0078 0.00065 0.0
          0.0065 0.00065 0.0
          0.0052 0.00065 0.0
          0.0039 0.00065 0.0
          0.0026 0.00065 0.0
          0.0013 0.00065 0.0
          0 0.00065 0.0
          0.039 -0.00065 0.0
          0.0377 -0.00065 0.0
          0.0364 -0.00065 0.0
          0.0351 -0.00065 0.0
          0.0338 -0.00065 0.0
          0.0325 -0.00065 0.0
          0.0312 -0.00065 0.0
          0.0299 -0.00065 0.0
          0.0286 -0.00065 0.0
          0.0273 -0.00065 0.0
          0.026 -0.00065 0.0
          0.0247 -0.00065 0.0
          0.0234 -0.00065 0.0
          0.0221 -0.00065 0.0
          0.0208 -0.00065 0.0
          0.0195 -0.00065 0.0
          0.0182 -0.00065 0.0
          0.0169 -0.00065 0.0
          0.0156 -0.00065 0.0
          0.0143 -0.00065 0.0
          0.013 -0.00065 0.0
          0.0117 -0.00065 0.0
          0.0104 -0.00065 0.0
          0.0091 -0.00065 0.0
          0.0078 -0.00065 0.0
          0.0065 -0.00065 0.0
          0.0052 -0.00065 0.0
          0.0039 -0.00065 0.0
          0.0026 -0.00065 0.0
          0.0013 -0.00065 0.0
          0 -0.00065 0.0
          0.039 -0.00195 0.0
          0.0377 -0.00195 0.0
          0.0364 -0.00195 0.0
          0.0351 -0.00195 0.0
          0.0338 -0.00195 0.0
          0.0325 -0.00195 0.0
          0.0312 -0.00195 0.0
          0.0299 -0.00195 0.0
          0.0286 -0.00195 0.0
          0.0273 -0.00195 0.0
          0.026 -0.00195 0.0
          0.0247 -0.00195 0.0
          0.0234 -0.00195 0.0
          0.0221 -0.00195 0.0
          0.0208 -0.00195 0.0
          0.0195 -0.00195 0.0
          0.0182 -0.00195 0.0
          0.0169 -0.00195 0.0
          0.0156 -0.00195 0.0
          0.0143 -0.00195 0.0
          0.013 -0.00195 0.0
          0.0117 -0.00195 0.0
          0.0104 -0.00195 0.0
          0.0091 -0.00195 0.0
          0.0078 -0.00195 0.0
          0.0065 -0.00195 0.0
          0.0052 -0.00195 0.0
          0.0039 -0.00195 0.0
          0.0026 -0.00195 0.0
          0.0013 -0.00195 0.0
          0 -0.00195 0.0
          0.039 -0.00325 0.0
          0.0377 -0.00325 0.0
          0.0364 -0.00325 0.0
          0.0351 -0.00325 0.0
          0.0338 -0.00325 0.0
          0.0325 -0.00325 0.0
          0.0312 -0.00325 0.0
          0.0299 -0.00325 0.0
          0.0286 -0.00325 0.0
          0.0273 -0.00325 0.0
          0.026 -0.00325 0.0
          0.0247 -0.00325 0.0
          0.0234 -0.00325 0.0
          0.0221 -0.00325 0.0
          0.0208 -0.00325 0.0
          0.0195 -0.00325 0.0
          0.0182 -0.00325 0.0
          0.0169 -0.00325 0.0
          0.0156 -0.00325 0.0
          0.0143 -0.00325 0.0
          0.013 -0.00325 0.0
          0.0117 -0.00325 0.0
          0.0104 -0.00325 0.0
          0.0091 -0.00325 0.0
          0.0078 -0.00325 0.0
          0.0065 -0.00325 0.0
          0.0052 -0.00325 0.0
          0.0039 -0.00325 0.0
          0.0026 -0.00325 0.0
          0.0013 -0.00325 0.0
          0 -0.00325 0.0
          0.039 -0.00455 0.0
          0.0377 -0.00455 0.0
          0.0364 -0.00455 0.0
          0.0351 -0.00455 0.0
          0.0338 -0.00455 0.0
          0.0325 -0.00455 0.0
          0.0312 -0.00455 0.0
          0.0299 -0.00455 0.0
          0.0286 -0.00455 0.0
          0.0273 -0.00455 0.0
          0.026 -0.00455 0.0
          0.0247 -0.00455 0.0
          0.0234 -0.00455 0.0
          0.0221 -0.00455 0.0
          0.0208 -0.00455 0.0
          0.0195 -0.00455 0.0
          0.0182 -0.00455 0.0
          0.0169 -0.00455 0.0
          0.0156 -0.00455 0.0
          0.0143 -0.00455 0.0
          0.013 -0.00455 0.0
          0.0117 -0.00455 0.0
          0.0104 -0.00455 0.0
          0.0091 -0.00455 0.0
          0.0078 -0.00455 0.0
          0.0065 -0.00455 0.0
          0.0052 -0.00455 0.0
          0.0039 -0.00455 0.0
          0.0026 -0.00455 0.0
          0.0013 -0.00455 0.0
          0 -0.00455 0.0
          0.039 -0.00585 0.0
          0.0377 -0.00585 0.0
          0.0364 -0.00585 0.0
          0.0351 -0.00585 0.0
          0.0338 -0.00585 0.0
          0.0325 -0.00585 0.0
          0.0312 -0.00585 0.0
          0.0299 -0.00585 0.0
          0.0286 -0.00585 0.0
          0.0273 -0.00585 0.0
          0.026 -0.00585 0.0
          0.0247 -0.00585 0.0
          0.0234 -0.00585 0.0
          0.0221 -0.00585 0.0
          0.0208 -0.00585 0.0
          0.0195 -0.00585 0.0
          0.0182 -0.00585 0.0
          0.0169 -0.00585 0.0
          0.0156 -0.00585 0.0
          0.0143 -0.00585 0.0
          0.013 -0.00585 0.0
          0.0117 -0.00585 0.0
          0.0104 -0.00585 0.0
          0.0091 -0.00585 0.0
          0.0078 -0.00585 0.0
          0.0065 -0.00585 0.0
          0.0052 -0.00585 0.0
          0.0039 -0.00585 0.0
          0.0026 -0.00585 0.0
          0.0013 -0.00585 0.0
          0 -0.00585 0.0
          0.039 -0.00715 0.0
          0.0377 -0.00715 0.0
          0.0364 -0.00715 0.0
          0.0351 -0.00715 0.0
          0.0338 -0.00715 0.0
          0.0325 -0.00715 0.0
          0.0312 -0.00715 0.0
          0.0299 -0.00715 0.0
          0.0286 -0.00715 0.0
          0.0273 -0.00715 0.0
          0.026 -0.00715 0.0
          0.0247 -0.00715 0.0
          0.0234 -0.00715 0.0
          0.0221 -0.00715 0.0
          0.0208 -0.00715 0.0
          0.0195 -0.00715 0.0
          0.0182 -0.00715 0.0
          0.0169 -0.00715 0.0
          0.0156 -0.00715 0.0
          0.0143 -0.00715 0.0
          0.013 -0.00715 0.0
          0.0117 -0.00715 0.0
          0.0104 -0.00715 0.0
          0.0091 -0.00715 0.0
          0.0078 -0.00715 0.0
          0.0065 -0.00715 0.0
          0.0052 -0.00715 0.0
          0.0039 -0.00715 0.0
          0.0026 -0.00715 0.0
          0.0013 -0.00715 0.0
          0 -0.00715 0.0
          0.039 -0.00845 0.0
          0.0377 -0.00845 0.0
          0.0364 -0.00845 0.0
          0.0351 -0.00845 0.0
          0.0338 -0.00845 0.0
          0.0325 -0.00845 0.0
          0.0312 -0.00845 0.0
          0.0299 -0.00845 0.0
          0.0286 -0.00845 0.0
          0.0273 -0.00845 0.0
          0.026 -0.00845 0.0
          0.0247 -0.00845 0.0
          0.0234 -0.00845 0.0
          0.0221 -0.00845 0.0
          0.0208 -0.00845 0.0
          0.0195 -0.00845 0.0
          0.0182 -0.00845 0.0
          0.0169 -0.00845 0.0
          0.0156 -0.00845 0.0
          0.0143 -0.00845 0.0
          0.013 -0.00845 0.0
          0.0117 -0.00845 0.0
          0.0104 -0.00845 0.0
          0.0091 -0.00845 0.0
          0.0078 -0.00845 0.0
          0.0065 -0.00845 0.0
          0.0052 -0.00845 0.0
          0.0039 -0.00845 0.0
          0.0026 -0.00845 0.0
          0.0013 -0.00845 0.0
          0 -0.00845 0.0
          0.039 -0.00975 0.0
          0.0377 -0.00975 0.0
          0.0364 -0.00975 0.0
          0.0351 -0.00975 0.0
          0.0338 -0.00975 0.0
          0.0325 -0.00975 0.0
          0.0312 -0.00975 0.0
          0.0299 -0.00975 0.0
          0.0286 -0.00975 0.0
          0.0273 -0.00975 0.0
          0.026 -0.00975 0.0
          0.0247 -0.00975 0.0
          0.0234 -0.00975 0.0
          0.0221 -0.00975 0.0
          0.0208 -0.00975 0.0
          0.0195 -0.00975 0.0
          0.0182 -0.00975 0.0
          0.0169 -0.00975 0.0
          0.0156 -0.00975 0.0
          0.0143 -0.00975 0.0
          0.013 -0.00975 0.0
          0.0117 -0.00975 0.0
          0.0104 -0.00975 0.0
          0.0091 -0.00975 0.0
          0.0078 -0.00975 0.0
          0.0065 -0.00975 0.0
          0.0052 -0.00975 0.0
          0.0039 -0.00975 0.0
          0.0026 -0.00975 0.0
          0.0013 -0.00975 0.0
          0 -0.00975 0.0
          0.039 -0.01105 0.0
          0.0377 -0.01105 0.0
          0.0364 -0.01105 0.0
          0.0351 -0.01105 0.0
          0.0338 -0.01105 0.0
          0.0325 -0.01105 0.0
          0.0312 -0.01105 0.0
          0.0299 -0.01105 0.0
          0.0286 -0.01105 0.0
          0.0273 -0.01105 0.0
          0.026 -0.01105 0.0
          0.0247 -0.01105 0.0
          0.0234 -0.01105 0.0
          0.0221 -0.01105 0.0
          0.0208 -0.01105 0.0
          0.0195 -0.01105 0.0
          0.0182 -0.01105 0.0
          0.0169 -0.01105 0.0
          0.0156 -0.01105 0.0
          0.0143 -0.01105 0.0
          0.013 -0.01105 0.0
          0.0117 -0.01105 0.0
          0.0104 -0.01105 0.0
          0.0091 -0.01105 0.0
          0.0078 -0.01105 0.0
          0.0065 -0.01105 0.0
          0.0052 -0.01105 0.0
          0.0039 -0.01105 0.0
          0.0026 -0.01105 0.0
          0.0013 -0.01105 0.0
          0 -0.01105 0.0
          0.039 -0.01235 0.0
          0.0377 -0.01235 0.0
          0.0364 -0.01235 0.0
          0.0351 -0.01235 0.0
          0.0338 -0.01235 0.0
          0.0325 -0.01235 0.0
          0.0312 -0.01235 0.0
          0.0299 -0.01235 0.0
          0.0286 -0.01235 0.0
          0.0273 -0.01235 0.0
          0.026 -0.01235 0.0
          0.0247 -0.01235 0.0
          0.0234 -0.01235 0.0
          0.0221 -0.01235 0.0
          0.0208 -0.01235 0.0
          0.0195 -0.01235 0.0
          0.0182 -0.01235 0.0
          0.0169 -0.01235 0.0
          0.0156 -0.01235 0.0
          0.0143 -0.01235 0.0
          0.013 -0.01235 0.0
          0.0117 -0.01235 0.0
          0.0104 -0.01235 0.0
          0.0091 -0.01235 0.0
          0.0078 -0.01235 0.0
          0.0065 -0.01235 0.0
          0.0052 -0.01235 0.0
          0.0039 -0.01235 0.0
          0.0026 -0.01235 0.0
          0.0013 -0.01235 0.0
          0 -0.01235 0.0
          0.039 -0.01365 0.0
          0.0377 -0.01365 0.0
          0.0364 -0.01365 0.0
          0.0351 -0.01365 0.0
          0.0338 -0.01365 0.0
          0.0325 -0.01365 0.0
          0.0312 -0.01365 0.0
          0.0299 -0.01365 0.0
          0.0286 -0.01365 0.0
          0.0273 -0.01365 0.0
          0.026 -0.01365 0.0
          0.0247 -0.01365 0.0
          0.0234 -0.01365 0.0
          0.0221 -0.01365 0.0
          0.0208 -0.01365 0.0
          0.0195 -0.01365 0.0
          0.0182 -0.01365 0.0
          0.0169 -0.01365 0.0
          0.0156 -0.01365 0.0
          0.0143 -0.01365 0.0
          0.013 -0.01365 0.0
          0.0117 -0.01365 0.0
          0.0104 -0.01365 0.0
          0.0091 -0.01365 0.0
          0.0078 -0.01365 0.0
          0.0065 -0.01365 0.0
          0.0052 -0.01365 0.0
          0.0039 -0.01365 0.0
          0.0026 -0.01365 0.0
          0.0013 -0.01365 0.0
          0 -0.01365 0.0
          0.039 -0.01495 0.0
          0.0377 -0.01495 0.0
          0.0364 -0.01495 0.0
          0.0351 -0.01495 0.0
          0.0338 -0.01495 0.0
          0.0325 -0.01495 0.0
          0.0312 -0.01495 0.0
          0.0299 -0.01495 0.0
          0.0286 -0.01495 0.0
          0.0273 -0.01495 0.0
          0.026 -0.01495 0.0
          0.0247 -0.01495 0.0
          0.0234 -0.01495 0.0
          0.0221 -0.01495 0.0