<?xml version="1.0"?>
<VTKFile type="UnstructuredGrid" version="0.1" byte_order="LittleEndian">
  <UnstructuredGrid>
    <Piece NumberOfPoints="961" NumberOfCells="900">
      <PointData Scalars="Temperature">
        <DataArray type="Float32" Name="Temperature" format="ascii">
          21.0037
          21.0621
          21.1227
          21.1828
          21.2334
          21.2668
          21.2801
          21.2801
          21.2768
          21.2783
          21.285
          21.2912
          21.2915
          21.2861
          21.2806
          21.2808
          21.2865
          21.2922
          21.292
          21.2858
          21.2793
          21.278
          21.2815
          21.2822
          21.2706
          21.2404
          21.1952
          21.1426
          21.0917
          21.0453
          21.0027
          21.0603
          22
          23.0071
          24.0162
          24.8897
          25.4369
          25.6354
          25.5907
          25.5092
          25.5331
          25.6676
          25.7949
          25.7997
          25.6845
          25.5694
          25.5721
          25.6922
          25.8105
          25.8075
          25.6814
          25.5488
          25.5279
          25.6141
          25.6681
          25.4937
          24.9975
          24.2121
          23.3266
          22.4773
          21.7329
          21.0441
          21.1121
          22.8644
          24.769
          27.0417
          28.8866
          30.0576
          30.251
          29.9257
          29.5724
          29.6215
          30.0594
          30.4829
          30.4876
          30.0844
          29.6823
          29.6892
          30.1013
          30.5106
          30.5076
          30.0854
          29.6504
          29.6075
          29.9685
          30.3047
          30.1348
          29.0561
          27.3813
          25.3606
          23.7546
          22.3657
          21.0822
          21.1551
          23.5784
          26.2355
          29.4129
          35.1233
          35.124
          35.1241
          35.1239
          32.6095
          32.6756
          35.3547
          35.3551
          35.3551
          35.3547
          32.752
          32.7621
          35.3918
          35.3921
          35.3921
          35.3918
          32.7142
          32.6562
          35.1896
          35.1899
          35.1897
          35.1891
          29.8603
          27.0557
          24.8216
          22.8997
          21.1145
          21.1864
          24.0915
          27.2163
          30.9161
          35.1247
          35.1249
          35.1251
          35.1251
          34.3841
          34.461
          35.3559
          35.3559
          35.3559
          35.3559
          34.5442
          34.5565
          35.393
          35.393
          35.393
          35.3929
          34.5049
          34.4375
          35.1908
          35.1908
          35.1907
          35.1904
          31.4412
          28.2187
          25.6141
          23.3079
          21.1394
          21.2061
          24.4028
          27.7548
          31.3457
          35.1269
          35.1271
          35.1272
          35.1272
          34.9444
          35.0213
          35.3579
          35.3579
          35.3579
          35.3579
          35.1086
          35.121
          35.395
          35.395
          35.395
          35.395
          35.0671
          34.9997
          35.1929
          35.1929
          35.1928
          35.1926
          31.9393
          28.8951
          26.1305
          23.5889
          21.1569
          21.2168
          24.5652
          27.9889
          31.5198
          35.1301
          35.1303
          35.1304
          35.1304
          35.1228
          35.1996
          35.3609
          35.3609
          35.3609
          35.3609
          35.2881
          35.3005
          35.398
          35.398
          35.398
          35.398
          35.2459
          35.1786
          35.1961
          35.1961
          35.196
          35.1958
          32.1644
          29.2285
          26.4331
          23.764
          21.168
          21.2219
          24.6405
          28.094
          31.5961
          35.1343
          35.1345
          35.1346
          35.1347
          35.1819
          35.2586
          35.3649
          35.3649
          35.3649
          35.3649
          35.3475
          35.3599
          35.402
          35.402
          35.402
          35.402
          35.3051
          35.2379
          35.2003
          35.2003
          35.2002
          35.2
          32.2762
          29.4007
          26.5982
          23.8651
          21.1745
          21.2242
          24.6752
          28.1422
          31.6321
          35.1396
          35.1398
          35.1399
          35.14
          35.2043
          35.281
          35.3699
          35.3699
          35.3699
          35.3699
          35.3699
          35.3822
          35.407
          35.407
          35.407
          35.407
          35.3275
          35.2604
          35.2056
          35.2055
          35.2054
          35.2053
          32.3354
          29.4919
          26.6875
          23.921
          21.1781
          21.2254
          24.6916
          28.1656
          31.651
          35.146
          35.1462
          35.1463
          35.1463
          35.216
          35.2925
          35.3758
          35.3758
          35.3758
          35.3758
          35.3813
          35.3936
          35.4129
          35.4129
          35.4129
          35.4129
          35.339
          35.272
          35.2118
          35.2118
          35.2117
          35.2116
          32.369
          29.5418
          26.7363
          23.9517
          21.1801
          21.2259
          24.7001
          28.1783
          31.6628
          35.1534
          35.1536
          35.1537
          35.1537
          35.2249
          35.3012
          35.3828
          35.3828
          35.3828
          35.3828
          35.3899
          35.4023
          35.4199
          35.4199
          35.4199
          35.4198
          35.3478
          35.2809
          35.2192
          35.2191
          35.2191
          35.2189
          32.3899
          29.5705
          26.7638
          23.9688
          21.1812
          21.2263
          24.7052
          28.1866
          31.672
          35.1619
          35.162
          35.1622
          35.1622
          35.2337
          35.3099
          35.3907
          35.3907
          35.3907
          35.3907
          35.3983
          35.4107
          35.4278
          35.4278
          35.4278
          35.4278
          35.3564
          35.2896
          35.2275
          35.2275
          35.2274
          35.2273
          32.4045
          29.5884
          26.7802
          23.9789
          21.1819
          21.2265
          24.709
          28.1932
          31.6804
          35.1714
          35.1715
          35.1717
          35.1717
          35.2432
          35.3191
          35.3996
          35.3996
          35.3996
          35.3996
          35.4074
          35.4198
          35.4367
          35.4367
          35.4367
          35.4367
          35.3656
          35.299
          35.2369
          35.2369
          35.2368
          35.2367
          32.4163
          29.6011
          26.7911
          23.9854
          21.1823
          21.2267
          24.7124
          28.1994
          31.6889
          35.1819
          35.1821
          35.1822
          35.1822
          35.2535
          35.3293
          35.4094
          35.4094
          35.4094
          35.4094
          35.4173
          35.4297
          35.4465
          35.4465
          35.4465
          35.4465
          35.3757
          35.3093
          35.2474
          35.2473
          35.2472
          35.2471
          32.4272
          29.6115
          26.7994
          23.9902
          21.1826
          21.2269
          24.7158
          28.2057
          31.698
          35.1935
          35.1937
          35.1938
          35.1938
          35.2649
          35.3404
          35.4203
          35.4203
          35.4203
          35.4203
          35.4282
          35.4406
          35.4574
          35.4574
          35.4574
          35.4574
          35.3868
          35.3206
          35.2588
          35.2588
          35.2587
          35.2585
          32.4382
          29.6213
          26.807
          23.9945
          21.1829
          21.2271
          24.7194
          28.2126
          31.7078
          35.2061
          35.2063
          35.2064
          35.2065
          35.2773
          35.3525
          35.4321
          35.4321
          35.4321
          35.4321
          35.44
          35.4524
          35.4692
          35.4692
          35.4692
          35.4692
          35.3988
          35.3329
          35.2713
          35.2713
          35.2712
          35.271
          32.45
          29.6317
          26.815
          23.999
          21.1832
          21.2274
          24.7235
          28.2203
          31.7186
          35.2198
          35.22
          35.2201
          35.2202
          35.2907
          35.3656
          35.4449
          35.4449
          35.4449
          35.4449
          35.4529
          35.4652
          35.482
          35.482
          35.482
          35.482
          35.4119
          35.3462
          35.2848
          35.2848
          35.2847
          35.2846
          32.4634
          29.6441
          26.8248
          24.0045
          21.1835
          21.2277
          24.7285
          28.2294
          31.7309
          35.2345
          35.2347
          35.2348
          35.2349
          35.3051
          35.3797
          35.4587
          35.4587
          35.4587
          35.4587
          35.4666
          35.479
          35.4958
          35.4958
          35.4958
          35.4958
          35.4259
          35.3605
          35.2994
          35.2994
          35.2993
          35.2991
          32.4795
          29.6601
          26.838
          24.0123
          21.184
          21.2281
          24.7353
          28.2409
          31.7452
          35.2503
          35.2505
          35.2506
          35.2507
          35.3205
          35.3948
          35.4735
          35.4735
          35.4735
          35.4735
          35.4814
          35.4938
          35.5106
          35.5106
          35.5106
          35.5106
          35.441
          35.3758
          35.315
          35.315
          35.3149
          35.3147
          32.5002
          29.6828
          26.8578
          24.0242
          21.1848
          21.2289
          24.7454
          28.2573
          31.7634
          35.2672
          35.2673
          35.2675
          35.2675
          35.337
          35.4109
          35.4892
          35.4892
          35.4892
          35.4892
          35.4972
          35.5096
          35.5264
          35.5264
          35.5264
          35.5264
          35.457
          35.3921
          35.3316
          35.3316
          35.3315
          35.3314
          32.5289
          29.7179
          26.89
          24.0439
          21.1861
          21.2296
          24.7633
          28.2841
          31.7893
          35.285
          35.2852
          35.2853
          35.2854
          35.3545
          35.428
          35.5059
          35.506
          35.506
          35.506
          35.514
          35.5263
          35.5431
          35.5431
          35.5431
          35.5431
          35.4741
          35.4095
          35.3493
          35.3493
          35.3492
          35.349
          32.5721
          29.776
          26.9454
          24.0788
          21.1879
          21.234
          24.797
          28.3341
          31.8315
          35.3039
          35.3041
          35.3043
          35.3043
          35.373
          35.4461
          35.5236
          35.5237
          35.5237
          35.5237
          35.5318
          35.5441
          35.5608
          35.5608
          35.5608
          35.5608
          35.4921
          35.4279
          35.368
          35.368
          35.3678
          35.3677
          32.6418
          29.877
          27.045
          24.1412
          21.1941
          21.2299
          24.8719
          28.434
          31.9099
          35.3238
          35.3241
          35.3242
          35.3243
          35.3926
          35.4652
          35.5423
          35.5423
          35.5424
          35.5424
          35.5508
          35.5631
          35.5796
          35.5795
          35.5795
          35.5795
          35.5112
          35.4474
          35.3878
          35.3877
          35.3875
          35.3874
          32.76
          30.0587
          27.2272
          24.2622
          21.1929
          21.2806
          25.0164
          28.6534
          32.066
          35.3447
          35.345
          35.3453
          35.3455
          35.4133
          35.4854
          35.5617
          35.5619
          35.5621
          35.5623
          35.5713
          35.5836
          35.5993
          35.5993
          35.5991
          35.599
          35.5315
          35.4681
          35.4087
          35.4085
          35.4082
          35.408
          32.9651
          30.3876
          27.5759
          24.4767
          21.248
          21.1275
          25.4293
          29.1091
          32.3993
          35.3663
          35.3668
          35.3676
          35.368
          35.4355
          35.5065
          35.5818
          35.5822
          35.5831
          35.5835
          35.5943
          35.6065
          35.6204
          35.6201
          35.6196
          35.6193
          35.553
          35.4905
          35.4309
          35.4305
          35.4297
          35.4293
          33.3118
          30.9916
          28.2215
          24.9895
          21.1005
          21.979
          26.0377
          30.2361
          33.0437
          35.3878
          35.3892
          35.3914
          35.3926
          35.4601
          35.5291
          35.6016
          35.603
          35.6055
          35.6069
          35.6221
          35.6341
          35.6432
          35.6423
          35.6406
          35.6397
          35.5767
          35.5158
          35.4553
          35.4541
          35.4518
          35.4505
          33.8522
          32.0237
          29.6063
          25.7286
          21.9625
          18.6283
          29.4232
          32.3746
          34.0826
          35.4075
          35.4104
          35.4183
          35.4212
          35.4913
          35.553
          35.6188
          35.6222
          35.6315
          35.6349
          35.6613
          35.672
          35.6692
          35.667
          35.6611
          35.6589
          35.6037
          35.5489
          35.4837
          35.4808
          35.4727
          35.4697
          34.5936
          33.5615
          32.0639
          29.2797
          18.6106
          35.3616
          35.3813
          35.3959
          35.4094
          35.42
          35.4282
          35.4437
          35.473
          35.5365
          35.5813
          35.6214
          35.6402
          35.6587
          35.6834
          35.7229
          35.7304
          35.7088
          35.6929
          35.6811
          35.6691
          35.6389
          35.5978
          35.5354
          35.506
          35.4901
          35.4813
          35.4695
          35.4555
          35.4413
          35.4265
          35.4067
          35.3696
          35.3833
          35.3969
          35.4103
          35.4242
          35.4408
          35.4634
          35.4972
          35.5388
          35.5843
          35.6248
          35.6592
          35.6876
          35.7134
          35.7326
          35.7401
          35.7345
          35.721
          35.7033
          35.6782
          35.6441
          35.6014
          35.56
          35.5258
          35.5025
          35.4851
          35.4702
          35.456
          35.4421
          35.4284
          35.4146
          35.3784
          35.3871
          35.3984
          35.4121
          35.4281
          35.4479
          35.4735
          35.506
          35.5453
          35.5898
          35.6395
          35.6851
          35.7193
          35.7445
          35.7612
          35.7681
          35.765
          35.7529
          35.7323
          35.7017
          35.6581
          35.6105
          35.5696
          35.536
          35.5095
          35.4888
          35.4717
          35.4568
          35.4434
          35.4321
          35.4235
          35.3849
          35.3886
          35.3992
          35.4129
          35.4296
          35.4503
          35.4764
          35.5088
          35.5476
          35.5928
          35.6484
          35.7007
          35.7367
          35.7622
          35.7784
          35.7852
          35.7825
          35.7706
          35.7492
          35.7166
          35.667
          35.6142
          35.5728
          35.539
          35.5119
          35.4902
          35.4724
          35.4572
          35.4441
          35.4337
          35.43
        </DataArray>
      </PointData>
      <CellData>
      </CellData>
      <Points>
        <DataArray type="Float32" NumberOfComponents="3" format="ascii">
          0.039 0.00195 0.0
          0.0377 0.00195 0.0
          0.0364 0.00195 0.0
          0.0351 0.00195 0.0
          0.0338 0.00195 0.0
          0.0325 0.00195 0.0
          0.0312 0.00195 0.0
          0.0299 0.00195 0.0
          0.0286 0.00195 0.0
          0.0273 0.00195 0.0
          0.026 0.00195 0.0
          0.0247 0.00195 0.0
          0.0234 0.00195 0.0
          0.0221 0.00195 0.0
          0.0208 0.00195 0.0
          0.0195 0.00195 0.0
          0.0182 0.00195 0.0
          0.0169 0.00195 0.0
          0.0156 0.00195 0.0
          0.0143 0.00195 0.0
          0.013 0.00195 0.0
          0.0117 0.00195 0.0
          0.0104 0.00195 0.0
          0.0091 0.00195 0.0
          0.0078 0.00195 0.0
          0.0065 0.00195 0.0
          0.0052 0.00195 0.0
          0.0039 0.00195 0.0
          0.0026 0.00195 0.0
          0.0013 0.00195 0.0
          0 0.00195 0.0
          0.039 0.00065 0.0
          0.0377 0.00065 0.0
          0.0364 0.00065 0.0
          0.0351 0.00065 0.0
          0.0338 0.00065 0.0
          0.0325 0.00065 0.0
          0.0312 0.00065 0.0
          0.0299 0.00065 0.0
          0.0286 0.00065 0.0
          0.0273 0.00065 0.0
          0.026 0.00065 0.0
          0.0247 0.00065 0.0
          0.0234 0.00065 0.0
          0.0221 0.00065 0.0
          0.0208 0.00065 0.0
          0.0195 0.00065 0.0
          0.0182 0.00065 0.0
          0.0169 0.00065 0.0
          0.0156 0.00065 0.0
          0.0143 0.00065 0.0
          0.013 0.00065 0.0
          0.0117 0.00065 0.0
          0.0104 0.00065 0.0
          0.0091 0.00065 0.0
          0.0078 0.00065 0.0
          0.0065 0.00065 0.0
          0.0052 0.00065 0.0
          0.0039 0.00065 0.0
          0.0026 0.00065 0.0
          0.0013 0.00065 0.0
          0 0.00065 0.0
          0.039 -0.00065 0.0
          0.0377 -0.00065 0.0
          0.0364 -0.00065 0.0
          0.0351 -0.00065 0.0
          0.0338 -0.00065 0.0
          0.0325 -0.00065 0.0
          0.0312 -0.00065 0.0
          0.0299 -0.00065 0.0
          0.0286 -0.00065 0.0
          0.0273 -0.00065 0.0
          0.026 -0.00065 0.0
          0.0247 -0.00065 0.0
          0.0234 -0.00065 0.0
          0.0221 -0.00065 0.0
          0.0208 -0.00065 0.0
          0.0195 -0.00065 0.0
          0.0182 -0.00065 0.0
          0.0169 -0.00065 0.0
          0.0156 -0.00065 0.0
          0.0143 -0.00065 0.0
          0.013 -0.00065 0.0
          0.0117 -0.00065 0.0
          0.0104 -0.00065 0.0
          0.0091 -0.00065 0.0
          0.0078 -0.00065 0.0
          0.0065 -0.00065 0.0
          0.0052 -0.00065 0.0
          0.0039 -0.00065 0.0
          0.0026 -0.00065 0.0
          0.0013 -0.00065 0.0
          0 -0.00065 0.0
          0.039 -0.00195 0.0
          0.0377 -0.00195 0.0
          0.0364 -0.00195 0.0
          0.0351 -0.00195 0.0
          0.0338 -0.00195 0.0
          0.0325 -0.00195 0.0
          0.0312 -0.00195 0.0
          0.0299 -0.00195 0.0
          0.0286 -0.00195 0.0
          0.0273 -0.00195 0.0
          0.026 -0.00195 0.0
          0.0247 -0.00195 0.0
          0.0234 -0.00195 0.0
          0.0221 -0.00195 0.0
          0.0208 -0.00195 0.0
          0.0195 -0.00195 0.0
          0.0182 -0.00195 0.0
          0.0169 -0.00195 0.0
          0.0156 -0.00195 0.0
          0.0143 -0.00195 0.0
          0.013 -0.00195 0.0
          0.0117 -0.00195 0.0
          0.0104 -0.00195 0.0
          0.0091 -0.00195 0.0
          0.0078 -0.00195 0.0
          0.0065 -0.00195 0.0
          0.0052 -0.00195 0.0
          0.0039 -0.00195 0.0
          0.0026 -0.00195 0.0
          0.0013 -0.00195 0.0
          0 -0.00195 0.0
          0.039 -0.00325 0.0
          0.0377 -0.00325 0.0
          0.0364 -0.00325 0.0
          0.0351 -0.00325 0.0
          0.0338 -0.00325 0.0
          0.0325 -0.00325 0.0
          0.0312 -0.00325 0.0
          0.0299 -0.00325 0.0
          0.0286 -0.00325 0.0
          0.0273 -0.00325 0.0
          0.026 -0.00325 0.0
          0.0247 -0.00325 0.0
          0.0234 -0.00325 0.0
          0.0221 -0.00325 0.0
          0.0208 -0.00325 0.0
          0.0195 -0.00325 0.0
          0.0182 -0.00325 0.0
          0.0169 -0.00325 0.0
          0.0156 -0.00325 0.0
          0.0143 -0.00325 0.0
          0.013 -0.00325 0.0
          0.0117 -0.00325 0.0
          0.0104 -0.00325 0.0
          0.0091 -0.00325 0.0
          0.0078 -0.00325 0.0
          0.0065 -0.00325 0.0
          0.0052 -0.00325 0.0
          0.0039 -0.00325 0.0
          0.0026 -0.00325 0.0
          0.0013 -0.00325 0.0
          0 -0.00325 0.0
          0.039 -0.00455 0.0
          0.0377 -0.00455 0.0
          0.0364 -0.00455 0.0
          0.0351 -0.00455 0.0
          0.0338 -0.00455 0.0
          0.0325 -0.00455 0.0
          0.0312 -0.00455 0.0
          0.0299 -0.00455 0.0
          0.0286 -0.00455 0.0
          0.0273 -0.00455 0.0
          0.026 -0.00455 0.0
          0.0247 -0.00455 0.0
          0.0234 -0.00455 0.0
          0.0221 -0.00455 0.0
          0.0208 -0.00455 0.0
          0.0195 -0.00455 0.0
          0.0182 -0.00455 0.0
          0.0169 -0.00455 0.0
          0.0156 -0.00455 0.0
          0.0143 -0.00455 0.0
          0.013 -0.00455 0.0
          0.0117 -0.00455 0.0
          0.0104 -0.00455 0.0
          0.0091 -0.00455 0.0
          0.0078 -0.00455 0.0
          0.0065 -0.00455 0.0
          0.0052 -0.00455 0.0
          0.0039 -0.00455 0.0
          0.0026 -0.00455 0.0
          0.0013 -0.00455 0.0
          0 -0.00455 0.0
          0.039 -0.00585 0.0
          0.0377 -0.00585 0.0
          0.0364 -0.00585 0.0
          0.0351 -0.00585 0.0
          0.0338 -0.00585 0.0
          0.0325 -0.00585 0.0
          0.0312 -0.00585 0.0
          0.0299 -0.00585 0.0
          0.0286 -0.00585 0.0
          0.0273 -0.00585 0.0
          0.026 -0.00585 0.0
          0.0247 -0.00585 0.0
          0.0234 -0.00585 0.0
          0.0221 -0.00585 0.0
          0.0208 -0.00585 0.0
          0.0195 -0.00585 0.0
          0.0182 -0.00585 0.0
          0.0169 -0.00585 0.0
          0.0156 -0.00585 0.0
          0.0143 -0.00585 0.0
          0.013 -0.00585 0.0
          0.0117 -0.00585 0.0
          0.0104 -0.00585 0.0
          0.0091 -0.00585 0.0
          0.0078 -0.00585 0.0
          0.0065 -0.00585 0.0
          0.0052 -0.00585 0.0
          0.0039 -0.00585 0.0
          0.0026 -0.00585 0.0
          0.0013 -0.00585 0.0
          0 -0.00585 0.0
          0.039 -0.00715 0.0
          0.0377 -0.00715 0.0
          0.0364 -0.00715 0.0
          0.0351 -0.00715 0.0
          0.0338 -0.00715 0.0
          0.0325 -0.00715 0.0
          0.0312 -0.00715 0.0
          0.0299 -0.00715 0.0
          0.0286 -0.00715 0.0
          0.0273 -0.00715 0.0
          0.026 -0.00715 0.0
          0.0247 -0.00715 0.0
          0.0234 -0.00715 0.0
          0.0221 -0.00715 0.0
          0.0208 -0.00715 0.0
          0.0195 -0.00715 0.0
          0.0182 -0.00715 0.0
          0.0169 -0.00715 0.0
          0.0156 -0.00715 0.0
          0.0143 -0.00715 0.0
          0.013 -0.00715 0.0
          0.0117 -0.00715 0.0
          0.0104 -0.00715 0.0
          0.0091 -0.00715 0.0
          0.0078 -0.00715 0.0
          0.0065 -0.00715 0.0
          0.0052 -0.00715 0.0
          0.0039 -0.00715 0.0
          0.0026 -0.00715 0.0
          0.0013 -0.00715 0.0
          0 -0.00715 0.0
          0.039 -0.00845 0.0
          0.0377 -0.00845 0.0
          0.0364 -0.00845 0.0
          0.0351 -0.00845 0.0
          0.0338 -0.00845 0.0
          0.0325 -0.00845 0.0
          0.0312 -0.00845 0.0
          0.0299 -0.00845 0.0
          0.0286 -0.00845 0.0
          0.0273 -0.00845 0.0
          0.026 -0.00845 0.0
          0.0247 -0.00845 0.0
          0.0234 -0.00845 0.0
          0.0221 -0.00845 0.0
          0.0208 -0.00845 0.0
          0.0195 -0.00845 0.0
          0.0182 -0.00845 0.0
          0.0169 -0.00845 0.0
          0.0156 -0.00845 0.0
          0.0143 -0.00845 0.0
          0.013 -0.00845 0.0
          0.0117 -0.00845 0.0
          0.0104 -0.00845 0.0
          0.0091 -0.00845 0.0
          0.0078 -0.00845 0.0
          0.0065 -0.00845 0.0
          0.0052 -0.00845 0.0
          0.0039 -0.00845 0.0
          0.0026 -0.00845 0.0
          0.0013 -0.00845 0.0
          0 -0.00845 0.0
          0.039 -0.00975 0.0
          0.0377 -0.00975 0.0
          0.0364 -0.00975 0.0
          0.0351 -0.00975 0.0
          0.0338 -0.00975 0.0
          0.0325 -0.00975 0.0
          0.0312 -0.00975 0.0
          0.0299 -0.00975 0.0
          0.0286 -0.00975 0.0
          0.0273 -0.00975 0.0
          0.026 -0.00975 0.0
          0.0247 -0.00975 0.0
          0.0234 -0.00975 0.0
          0.0221 -0.00975 0.0
          0.0208 -0.00975 0.0
          0.0195 -0.00975 0.0
          0.0182 -0.00975 0.0
          0.0169 -0.00975 0.0
          0.0156 -0.00975 0.0
          0.0143 -0.00975 0.0
          0.013 -0.00975 0.0
          0.0117 -0.00975 0.0
          0.0104 -0.00975 0.0
          0.0091 -0.00975 0.0
          0.0078 -0.00975 0.0
          0.0065 -0.00975 0.0
          0.0052 -0.00975 0.0
          0.0039 -0.00975 0.0
          0.0026 -0.00975 0.0
          0.0013 -0.00975 0.0
          0 -0.00975 0.0
          0.039 -0.01105 0.0
          0.0377 -0.01105 0.0
          0.0364 -0.01105 0.0
          0.0351 -0.01105 0.0
          0.0338 -0.01105 0.0
          0.0325 -0.01105 0.0
          0.0312 -0.01105 0.0
          0.0299 -0.01105 0.0
          0.0286 -0.01105 0.0
          0.0273 -0.01105 0.0
          0.026 -0.01105 0.0
          0.0247 -0.01105 0.0
          0.0234 -0.01105 0.0
          0.0221 -0.01105 0.0
          0.0208 -0.01105 0.0
          0.0195 -0.01105 0.0
          0.0182 -0.01105 0.0
          0.0169 -0.01105 0.0
          0.0156 -0.01105 0.0
          0.0143 -0.01105 0.0
          0.013 -0.01105 0.0
          0.0117 -0.01105 0.0
          0.0104 -0.01105 0.0
          0.0091 -0.01105 0.0
          0.0078 -0.01105 0.0
          0.0065 -0.01105 0.0
          0.0052 -0.01105 0.0
          0.0039 -0.01105 0.0
          0.0026 -0.01105 0.0
          0.0013 -0.01105 0.0
          0 -0.01105 0.0
          0.039 -0.01235 0.0
          0.0377 -0.01235 0.0
          0.0364 -0.01235 0.0
          0.0351 -0.01235 0.0
          0.0338 -0.01235 0.0
          0.0325 -0.01235 0.0
          0.0312 -0.01235 0.0
          0.0299 -0.01235 0.0
          0.0286 -0.01235 0.0
          0.0273 -0.01235 0.0
          0.026 -0.01235 0.0
          0.0247 -0.01235 0.0
          0.0234 -0.01235 0.0
          0.0221 -0.01235 0.0
          0.0208 -0.01235 0.0
          0.0195 -0.01235 0.0
          0.0182 -0.01235 0.0
          0.0169 -0.01235 0.0
          0.0156 -0.01235 0.0
          0.0143 -0.01235 0.0
          0.013 -0.01235 0.0
          0.0117 -0.01235 0.0
          0.0104 -0.01235 0.0
          0.0091 -0.01235 0.0
          0.0078 -0.01235 0.0
          0.0065 -0.01235 0.0
          0.0052 -0.01235 0.0
          0.0039 -0.01235 0.0
          0.0026 -0.01235 0.0
          0.0013 -0.01235 0.0
          0 -0.01235 0.0
          0.039 -0.01365 0.0
          0.0377 -0.01365 0.0
          0.0364 -0.01365 0.0
          0.0351 -0.01365 0.0
          0.0338 -0.01365 0.0
          0.0325 -0.01365 0.0
          0.0312 -0.01365 0.0
          0.0299 -0.01365 0.0
          0.0286 -0.01365 0.0
          0.0273 -0.01365 0.0
          0.026 -0.01365 0.0
          0.0247 -0.01365 0.0
          0.0234 -0.01365 0.0
          0.0221 -0.01365 0.0
          0.0208 -0.01365 0.0
          0.0195 -0.01365 0.0
          0.0182 -0.01365 0.0
          0.0169 -0.01365 0.0
          0.0156 -0.01365 0.0
          0.0143 -0.01365 0.0
          0.013 -0.01365 0.0
          0.0117 -0.01365 0.0
          0.0104 -0.01365 0.0
          0.0091 -0.01365 0.0
          0.0078 -0.01365 0.0
          0.0065 -0.01365 0.0
          0.0052 -0.01365 0.0
          0.0039 -0.01365 0.0
          0.0026 -0.01365 0.0
          0.0013 -0.01365 0.0
          0 -0.01365 0.0
          0.039 -0.01495 0.0
          0.0377 -0.01495 0.0
          0.0364 -0.01495 0.0
          0.0351 -0.01495 0.0
          0.0338 -0.01495 0.0
          0.0325 -0.01495 0.0
          0.0312 -0.01495 0.0
          0.0299 -0.01495 0.0
          0.0286 -0.01495 0.0
          0.0273 -0.01495 0.0
          0.026 -0.01495 0.0
          0.0247 -0.01495 0.0
          0.0234 -0.01495 0.0
          0.0221 -0.01495 0.0
          0.0208 -0.01495 0.0