<?xml version="1.0"?>
<VTKFile type="UnstructuredGrid" version="0.1" byte_order="LittleEndian">
  <UnstructuredGrid>
    <Piece NumberOfPoints="961" NumberOfCells="900">
      <PointData Scalars="Temperature">
        <DataArray type="Float32" Name="Temperature" format="ascii">
          21.0027
          21.0451
          21.0891
          21.1328
          21.1695
          21.1938
          21.2035
          21.2036
          21.2014
          21.2027
          21.2077
          21.2124
          21.2127
          21.2088
          21.2048
          21.205
          21.2092
          21.2133
          21.2131
          21.2085
          21.2037
          21.2025
          21.205
          21.2054
          21.1968
          21.1749
          21.142
          21.1037
          21.0667
          21.033
          21.002
          21.0438
          21.7262
          22.4576
          23.1905
          23.8251
          24.2229
          24.3679
          24.337
          24.2807
          24.3016
          24.4027
          24.4974
          24.5019
          24.4183
          24.3349
          24.3376
          24.426
          24.5126
          24.5098
          24.4163
          24.3168
          24.2985
          24.3587
          24.3966
          24.269
          23.9078
          23.3362
          22.692
          22.0742
          21.5329
          21.0321
          21.0814
          22.3539
          23.7372
          25.3882
          26.7286
          27.5796
          27.7208
          27.4874
          27.2363
          27.2807
          27.6062
          27.9187
          27.923
          27.6294
          27.337
          27.3437
          27.6461
          27.9457
          27.9431
          27.6318
          27.3089
          27.27
          27.5278
          27.77
          27.6457
          26.8605
          25.6417
          24.1713
          23.0031
          21.993
          21.0598
          21.1126
          22.8725
          24.8024
          27.1107
          31.2605
          31.2609
          31.261
          31.2609
          29.4456
          29.5067
          31.4764
          31.4767
          31.4767
          31.4764
          29.5778
          29.5878
          31.5131
          31.5133
          31.5133
          31.5131
          29.5443
          29.4908
          31.3243
          31.3245
          31.3244
          31.3239
          27.4453
          25.4044
          23.7791
          22.3814
          21.0833
          21.1354
          23.2451
          25.5149
          28.2029
          31.2616
          31.2618
          31.2619
          31.2619
          30.7367
          30.8085
          31.4774
          31.4775
          31.4775
          31.4774
          30.8865
          30.8987
          31.5141
          31.5141
          31.5141
          31.5141
          30.8514
          30.7885
          31.3253
          31.3253
          31.3252
          31.3251
          28.5956
          26.2504
          24.3556
          22.6783
          21.1014
          21.1497
          23.4713
          25.9062
          28.5153
          31.2637
          31.2638
          31.2639
          31.2639
          31.1452
          31.217
          31.4794
          31.4794
          31.4794
          31.4794
          31.2991
          31.3113
          31.5161
          31.5161
          31.5161
          31.5161
          31.2617
          31.1988
          31.3273
          31.3273
          31.3272
          31.3271
          28.9583
          26.7427
          24.7314
          22.8827
          21.1141
          21.1574
          23.5895
          26.0766
          28.6424
          31.2668
          31.267
          31.2671
          31.2671
          31.2758
          31.3476
          31.4824
          31.4824
          31.4824
          31.4824
          31.431
          31.4432
          31.5191
          31.5191
          31.5191
          31.5191
          31.3929
          31.3301
          31.3305
          31.3304
          31.3304
          31.3303
          29.1227
          26.9857
          24.9518
          23.0102
          21.1222
          21.1612
          23.6445
          26.1535
          28.6986
          31.2711
          31.2712
          31.2713
          31.2713
          31.32
          31.3917
          31.4864
          31.4864
          31.4864
          31.4864
          31.4755
          31.4877
          31.5231
          31.5231
          31.5231
          31.5231
          31.4372
          31.3744
          31.3347
          31.3346
          31.3346
          31.3345
          29.2048
          27.1116
          25.0723
          23.084
          21.1269
          21.1629
          23.6701
          26.1893
          28.7259
          31.2764
          31.2765
          31.2766
          31.2766
          31.3378
          31.4095
          31.4915
          31.4915
          31.4915
          31.4915
          31.4932
          31.5055
          31.5282
          31.5282
          31.5282
          31.5282
          31.455
          31.3922
          31.34
          31.3399
          31.3399
          31.3397
          29.2491
          27.1788
          25.1378
          23.125
          21.1296
          21.1638
          23.6825
          26.2072
          28.7409
          31.2828
          31.2829
          31.283
          31.283
          31.3481
          31.4196
          31.4976
          31.4976
          31.4976
          31.4976
          31.5033
          31.5156
          31.5343
          31.5343
          31.5343
          31.5343
          31.4651
          31.4025
          31.3463
          31.3463
          31.3462
          31.3461
          29.275
          27.2162
          25.174
          23.1476
          21.131
          21.1642
          23.6892
          26.2175
          28.7511
          31.2903
          31.2904
          31.2905
          31.2905
          31.3567
          31.4281
          31.5048
          31.5048
          31.5048
          31.5048
          31.5117
          31.524
          31.5415
          31.5415
          31.5415
          31.5415
          31.4736
          31.4111
          31.3538
          31.3537
          31.3537
          31.3536
          29.2918
          27.2383
          25.1948
          23.1605
          21.1319
          21.1645
          23.6935
          26.2247
          28.7596
          31.2989
          31.299
          31.2991
          31.2991
          31.3655
          31.4368
          31.513
          31.513
          31.513
          31.513
          31.5203
          31.5326
          31.5497
          31.5497
          31.5497
          31.5497
          31.4823
          31.4199
          31.3623
          31.3622
          31.3622
          31.3621
          29.3044
          27.2528
          25.2077
          23.1684
          21.1324
          21.1647
          23.697
          26.2309
          28.7678
          31.3085
          31.3087
          31.3087
          31.3088
          31.3752
          31.4463
          31.5222
          31.5222
          31.5223
          31.5223
          31.5297
          31.5419
          31.5589
          31.5589
          31.5589
          31.5589
          31.4918
          31.4295
          31.3719
          31.3718
          31.3718
          31.3717
          29.3152
          27.2637
          25.2168
          23.1737
          21.1327
          21.1649
          23.7003
          26.237
          28.7763
          31.3193
          31.3194
          31.3195
          31.3195
          31.3858
          31.4568
          31.5325
          31.5325
          31.5325
          31.5325
          31.54
          31.5523
          31.5692
          31.5692
          31.5692
          31.5692
          31.5023
          31.4401
          31.3825
          31.3825
          31.3824
          31.3823
          29.3256
          27.2731
          25.2241
          23.1778
          21.133
          21.1651
          23.7036
          26.2434
          28.7855
          31.3311
          31.3312
          31.3313
          31.3313
          31.3975
          31.4683
          31.5438
          31.5438
          31.5438
          31.5438
          31.5514
          31.5636
          31.5806
          31.5806
          31.5806
          31.5805
          31.5138
          31.4517
          31.3943
          31.3942
          31.3942
          31.3941
          29.3363
          27.2823
          25.231
          23.1816
          21.1332
          21.1653
          23.7072
          26.2502
          28.7954
          31.344
          31.3442
          31.3442
          31.3443
          31.4102
          31.4809
          31.5562
          31.5562
          31.5562
          31.5562
          31.5637
          31.576
          31.5929
          31.5929
          31.5929
          31.5929
          31.5263
          31.4643
          31.4071
          31.4071
          31.407
          31.4069
          29.3479
          27.2921
          25.2384
          23.1857
          21.1335
          21.1656
          23.7113
          26.2579
          28.8064
          31.358
          31.3582
          31.3582
          31.3583
          31.424
          31.4945
          31.5696
          31.5696
          31.5696
          31.5696
          31.5771
          31.5894
          31.6063
          31.6063
          31.6063
          31.6063
          31.5398
          31.4781
          31.421
          31.421
          31.4209
          31.4208
          29.3609
          27.3036
          25.2471
          23.1906
          21.1338
          21.1659
          23.7161
          26.2667
          28.8186
          31.3731
          31.3732
          31.3733
          31.3734
          31.4389
          31.5091
          31.584
          31.584
          31.584
          31.584
          31.5916
          31.6038
          31.6208
          31.6208
          31.6208
          31.6207
          31.5545
          31.4929
          31.436
          31.4359
          31.4359
          31.4358
          29.3762
          27.3179
          25.2586
          23.1972
          21.1342
          21.1663
          23.7222
          26.2775
          28.8325
          31.3893
          31.3894
          31.3895
          31.3895
          31.4548
          31.5248
          31.5995
          31.5995
          31.5995
          31.5995
          31.607
          31.6193
          31.6362
          31.6362
          31.6362
          31.6362
          31.5701
          31.5087
          31.452
          31.452
          31.4519
          31.4518
          29.395
          27.3374
          25.275
          23.2069
          21.1348
          21.1669
          23.731
          26.292
          28.8496
          31.4066
          31.4067
          31.4068
          31.4068
          31.4719
          31.5416
          31.616
          31.616
          31.616
          31.616
          31.6236
          31.6358
          31.6527
          31.6527
          31.6527
          31.6527
          31.5868
          31.5256
          31.4691
          31.4691
          31.469
          31.4689
          29.42
          27.3661
          25.3006
          23.2224
          21.1359
          21.1675
          23.7454
          26.3143
          28.8725
          31.4249
          31.425
          31.4251
          31.4252
          31.4899
          31.5594
          31.6335
          31.6335
          31.6336
          31.6336
          31.6411
          31.6534
          31.6703
          31.6703
          31.6703
          31.6703
          31.6046
          31.5436
          31.4873
          31.4873
          31.4872
          31.4871
          29.4559
          27.4119
          25.3433
          23.249
          21.1373
          21.1708
          23.7716
          26.3537
          28.9076
          31.4443
          31.4445
          31.4446
          31.4446
          31.5091
          31.5783
          31.6521
          31.6521
          31.6521
          31.6522
          31.6598
          31.6721
          31.6889
          31.6889
          31.6889
          31.6889
          31.6235
          31.5627
          31.5066
          31.5066
          31.5065
          31.5064
          29.5115
          27.4893
          25.4186
          23.296
          21.1419
          21.1679
          23.8279
          26.4299
          28.9695
          31.4648
          31.465
          31.4651
          31.4652
          31.5294
          31.5982
          31.6717
          31.6717
          31.6718
          31.6718
          31.6798
          31.692
          31.7086
          31.7085
          31.7085
          31.7085
          31.6434
          31.5829
          31.527
          31.5269
          31.5268
          31.5267
          29.6029
          27.626
          25.5546
          23.3859
          21.141
          21.2051
          23.9354
          26.5937
          29.0885
          31.4863
          31.4865
          31.4868
          31.4869
          31.5508
          31.6192
          31.6921
          31.6923
          31.6925
          31.6927
          31.7013
          31.7135
          31.7293
          31.7293
          31.7291
          31.729
          31.6645
          31.6044
          31.5486
          31.5484
          31.5482
          31.548
          29.7583
          27.871
          25.813
          23.5446
          21.1816
          21.0931
          24.2397
          26.9309
          29.3375
          31.5085
          31.5089
          31.5097
          31.51
          31.5737
          31.6412
          31.7133
          31.7137
          31.7145
          31.7149
          31.7253
          31.7374
          31.7514
          31.7511
          31.7506
          31.7504
          31.687
          31.6276
          31.5715
          31.5711
          31.5704
          31.57
          30.0177
          28.318
          26.2892
          23.9221
          21.0735
          21.7171
          24.6872
          27.7601
          29.8146
          31.5308
          31.532
          31.5341
          31.5352
          31.5991
          31.6648
          31.7342
          31.7356
          31.7381
          31.7394
          31.7542
          31.7661
          31.7753
          31.7744
          31.7728
          31.772
          31.7117
          31.6537
          31.5965
          31.5954
          31.5933
          31.5921
          30.4195
          29.0793
          27.308
          24.4659
          21.706
          19.2619
          27.17
          29.3309
          30.581
          31.5515
          31.5542
          31.5615
          31.5642
          31.631
          31.6899
          31.7528
          31.7561
          31.7651
          31.7684
          31.7946
          31.8051
          31.8024
          31.8003
          31.7945
          31.7924
          31.7399
          31.6876
          31.6254
          31.6227
          31.6152
          31.6125
          30.969
          30.2123
          29.1143
          27.073
          19.2467
          31.5239
          31.5385
          31.5495
          31.5598
          31.5666
          31.5729
          31.5872
          31.6155
          31.6769
          31.72
          31.7575
          31.7752
          31.7932
          31.8179
          31.8576
          31.8651
          31.8431
          31.8271
          31.8157
          31.8047
          31.7768
          31.7374
          31.6768
          31.6484
          31.6336
          31.6266
          31.6186
          31.6076
          31.5966
          31.5852
          31.5706
          31.5298
          31.54
          31.5503
          31.5607
          31.572
          31.5863
          31.6072
          31.6393
          31.6793
          31.723
          31.7619
          31.7951
          31.8228
          31.8483
          31.8674
          31.8748
          31.8692
          31.8559
          31.8387
          31.8148
          31.7821
          31.741
          31.7011
          31.6685
          31.6468
          31.6316
          31.6194
          31.608
          31.5972
          31.5867
          31.5764
          31.5363
          31.5428
          31.5517
          31.5627
          31.5762
          31.5938
          31.6174
          31.6482
          31.6858
          31.7287
          31.777
          31.8215
          31.8549
          31.8797
          31.8961
          31.9029
          31.8999
          31.8882
          31.8682
          31.8386
          31.7963
          31.7502
          31.7108
          31.6789
          31.6543
          31.6357
          31.6211
          31.6088
          31.5982
          31.5894
          31.5829
          31.5411
          31.544
          31.5523
          31.5635
          31.5778
          31.5962
          31.6204
          31.651
          31.6881
          31.7317
          31.786
          31.8372
          31.8724
          31.8975
          31.9134
          31.9202
          31.9176
          31.906
          31.8853
          31.8536
          31.8053
          31.7538
          31.7141
          31.682
          31.6567
          31.6372
          31.6218
          31.6092
          31.5987
          31.5905
          31.5877
        </DataArray>
      </PointData>
      <CellData>
      </CellData>
      <Points>
        <DataArray type="Float32" NumberOfComponents="3" format="ascii">
          0.039 0.00195 0.0
          0.0377 0.00195 0.0
          0.0364 0.00195 0.0
          0.0351 0.00195 0.0
          0.0338 0.00195 0.0
          0.0325 0.00195 0.0
          0.0312 0.00195 0.0
          0.0299 0.00195 0.0
          0.0286 0.00195 0.0
          0.0273 0.00195 0.0
          0.026 0.00195 0.0
          0.0247 0.00195 0.0
          0.0234 0.00195 0.0
          0.0221 0.00195 0.0
          0.0208 0.00195 0.0
          0.0195 0.00195 0.0
          0.0182 0.00195 0.0
          0.0169 0.00195 0.0
          0.0156 0.00195 0.0
          0.0143 0.00195 0.0
          0.013 0.00195 0.0
          0.0117 0.00195 0.0
          0.0104 0.00195 0.0
          0.0091 0.00195 0.0
          0.0078 0.00195 0.0
          0.0065 0.00195 0.0
          0.0052 0.00195 0.0
          0.0039 0.00195 0.0
          0.0026 0.00195 0.0
          0.0013 0.00195 0.0
          0 0.00195 0.0
          0.039 0.00065 0.0
          0.0377 0.00065 0.0
          0.0364 0.00065 0.0
          0.0351 0.00065 0.0
          0.0338 0.00065 0.0
          0.0325 0.00065 0.0
          0.0312 0.00065 0.0
          0.0299 0.00065 0.0
          0.0286 0.00065 0.0
          0.0273 0.00065 0.0
          0.026 0.00065 0.0
          0.0247 0.00065 0.0
          0.0234 0.00065 0.0
          0.0221 0.00065 0.0
          0.0208 0.00065 0.0
          0.0195 0.00065 0.0
          0.0182 0.00065 0.0
          0.0169 0.00065 0.0
          0.0156 0.00065 0.0
          0.0143 0.00065 0.0
          0.013 0.00065 0.0
          0.0117 0.00065 0.0
          0.0104 0.00065 0.0
          0.0091 0.00065 0.0
          0.0078 0.00065 0.0
          0.0065 0.00065 0.0
          0.0052 0.00065 0.0
          0.0039 0.00065 0.0
          0.0026 0.00065 0.0
          0.0013 0.00065 0.0
          0 0.00065 0.0
          0.039 -0.00065 0.0
          0.0377 -0.00065 0.0
          0.0364 -0.00065 0.0
          0.0351 -0.00065 0.0
          0.0338 -0.00065 0.0
          0.0325 -0.00065 0.0
          0.0312 -0.00065 0.0
          0.0299 -0.00065 0.0
          0.0286 -0.00065 0.0
          0.0273 -0.00065 0.0
          0.026 -0.00065 0.0
          0.0247 -0.00065 0.0
          0.0234 -0.00065 0.0
          0.0221 -0.00065 0.0
          0.0208 -0.00065 0.0
          0.0195 -0.00065 0.0
          0.0182 -0.00065 0.0
          0.0169 -0.00065 0.0
          0.0156 -0.00065 0.0
          0.0143 -0.00065 0.0
          0.013 -0.00065 0.0
          0.0117 -0.00065 0.0
          0.0104 -0.00065 0.0
          0.0091 -0.00065 0.0
          0.0078 -0.00065 0.0
          0.0065 -0.00065 0.0
          0.0052 -0.00065 0.0
          0.0039 -0.00065 0.0
          0.0026 -0.00065 0.0
          0.0013 -0.00065 0.0
          0 -0.00065 0.0
          0.039 -0.00195 0.0
          0.0377 -0.00195 0.0
          0.0364 -0.00195 0.0
          0.0351 -0.00195 0.0
          0.0338 -0.00195 0.0
          0.0325 -0.00195 0.0
          0.0312 -0.00195 0.0
          0.0299 -0.00195 0.0
          0.0286 -0.00195 0.0
          0.0273 -0.00195 0.0
          0.026 -0.00195 0.0
          0.0247 -0.00195 0.0
          0.0234 -0.00195 0.0
          0.0221 -0.00195 0.0
          0.0208 -0.00195 0.0
          0.0195 -0.00195 0.0
          0.0182 -0.00195 0.0
          0.0169 -0.00195 0.0
          0.0156 -0.00195 0.0
          0.0143 -0.00195 0.0
          0.013 -0.00195 0.0
          0.0117 -0.00195 0.0
          0.0104 -0.00195 0.0
          0.0091 -0.00195 0.0
          0.0078 -0.00195 0.0
          0.0065 -0.00195 0.0
          0.0052 -0.00195 0.0
          0.0039 -0.00195 0.0
          0.0026 -0.00195 0.0
          0.0013 -0.00195 0.0
          0 -0.00195 0.0
          0.039 -0.00325 0.0
          0.0377 -0.00325 0.0
          0.0364 -0.00325 0.0
          0.0351 -0.00325 0.0
          0.0338 -0.00325 0.0
          0.0325 -0.00325 0.0
          0.0312 -0.00325 0.0
          0.0299 -0.00325 0.0
          0.0286 -0.00325 0.0
          0.0273 -0.00325 0.0
          0.026 -0.00325 0.0
          0.0247 -0.00325 0.0
          0.0234 -0.00325 0.0
          0.0221 -0.00325 0.0
          0.0208 -0.00325 0.0
          0.0195 -0.00325 0.0
          0.0182 -0.00325 0.0
          0.0169 -0.00325 0.0
          0.0156 -0.00325 0.0
          0.0143 -0.00325 0.0
          0.013 -0.00325 0.0
          0.0117 -0.00325 0.0
          0.0104 -0.00325 0.0
          0.0091 -0.00325 0.0
          0.0078 -0.00325 0.0
          0.0065 -0.00325 0.0
          0.0052 -0.00325 0.0
          0.0039 -0.00325 0.0
          0.0026 -0.00325 0.0
          0.0013 -0.00325 0.0
          0 -0.00325 0.0
          0.039 -0.00455 0.0
          0.0377 -0.00455 0.0
          0.0364 -0.00455 0.0
          0.0351 -0.00455 0.0
          0.0338 -0.00455 0.0
          0.0325 -0.00455 0.0
          0.0312 -0.00455 0.0
          0.0299 -0.00455 0.0
          0.0286 -0.00455 0.0
          0.0273 -0.00455 0.0
          0.026 -0.00455 0.0
          0.0247 -0.00455 0.0
          0.0234 -0.00455 0.0
          0.0221 -0.00455 0.0
          0.0208 -0.00455 0.0
          0.0195 -0.00455 0.0
          0.0182 -0.00455 0.0
          0.0169 -0.00455 0.0
          0.0156 -0.00455 0.0
          0.0143 -0.00455 0.0
          0.013 -0.00455 0.0
          0.0117 -0.00455 0.0
          0.0104 -0.00455 0.0
          0.0091 -0.00455 0.0
          0.0078 -0.00455 0.0
          0.0065 -0.00455 0.0
          0.0052 -0.00455 0.0
          0.0039 -0.00455 0.0
          0.0026 -0.00455 0.0
          0.0013 -0.00455 0.0
          0 -0.00455 0.0
          0.039 -0.00585 0.0
          0.0377 -0.00585 0.0
          0.0364 -0.00585 0.0
          0.0351 -0.00585 0.0
          0.0338 -0.00585 0.0
          0.0325 -0.00585 0.0
          0.0312 -0.00585 0.0
          0.0299 -0.00585 0.0
          0.0286 -0.00585 0.0
          0.0273 -0.00585 0.0
          0.026 -0.00585 0.0
          0.0247 -0.00585 0.0
          0.0234 -0.00585 0.0
          0.0221 -0.00585 0.0
          0.0208 -0.00585 0.0
          0.0195 -0.00585 0.0
          0.0182 -0.00585 0.0
          0.0169 -0.00585 0.0
          0.0156 -0.00585 0.0
          0.0143 -0.00585 0.0
          0.013 -0.00585 0.0
          0.0117 -0.00585 0.0
          0.0104 -0.00585 0.0
          0.0091 -0.00585 0.0
          0.0078 -0.00585 0.0
          0.0065 -0.00585 0.0
          0.0052 -0.00585 0.0
          0.0039 -0.00585 0.0
          0.0026 -0.00585 0.0
          0.0013 -0.00585 0.0
          0 -0.00585 0.0
          0.039 -0.00715 0.0
          0.0377 -0.00715 0.0
          0.0364 -0.00715 0.0
          0.0351 -0.00715 0.0
          0.0338 -0.00715 0.0
          0.0325 -0.00715 0.0
          0.0312 -0.00715 0.0
          0.0299 -0.00715 0.0
          0.0286 -0.00715 0.0
          0.0273 -0.00715 0.0
          0.026 -0.00715 0.0
          0.0247 -0.00715 0.0
          0.0234 -0.00715 0.0
          0.0221 -0.00715 0.0
          0.0208 -0.00715 0.0
          0.0195 -0.00715 0.0
          0.0182 -0.00715 0.0
          0.0169 -0.00715 0.0
          0.0156 -0.00715 0.0
          0.0143 -0.00715 0.0
          0.013 -0.00715 0.0
          0.0117 -0.00715 0.0
          0.0104 -0.00715 0.0
          0.0091 -0.00715 0.0
          0.0078 -0.00715 0.0
          0.0065 -0.00715 0.0
          0.0052 -0.00715 0.0
          0.0039 -0.00715 0.0
          0.0026 -0.00715 0.0
          0.0013 -0.00715 0.0
          0 -0.00715 0.0
          0.039 -0.00845 0.0
          0.0377 -0.00845 0.0
          0.0364 -0.00845 0.0
          0.0351 -0.00845 0.0
          0.0338 -0.00845 0.0
          0.0325 -0.00845 0.0
          0.0312 -0.00845 0.0
          0.0299 -0.00845 0.0
          0.0286 -0.00845 0.0
          0.0273 -0.00845 0.0
          0.026 -0.00845 0.0
          0.0247 -0.00845 0.0
          0.0234 -0.00845 0.0
          0.0221 -0.00845 0.0
          0.0208 -0.00845 0.0
          0.0195 -0.00845 0.0
          0.0182 -0.00845 0.0
          0.0169 -0.00845 0.0
          0.0156 -0.00845 0.0
          0.0143 -0.00845 0.0
          0.013 -0.00845 0.0
          0.0117 -0.00845 0.0
          0.0104 -0.00845 0.0
          0.0091 -0.00845 0.0
          0.0078 -0.00845 0.0
          0.0065 -0.00845 0.0
          0.0052 -0.00845 0.0
          0.0039 -0.00845 0.0
          0.0026 -0.00845 0.0
          0.0013 -0.00845 0.0
          0 -0.00845 0.0
          0.039 -0.00975 0.0
          0.0377 -0.00975 0.0
          0.0364 -0.00975 0.0
          0.0351 -0.00975 0.0
          0.0338 -0.00975 0.0
          0.0325 -0.00975 0.0
          0.0312 -0.00975 0.0
          0.0299 -0.00975 0.0
          0.0286 -0.00975 0.0
          0.0273 -0.00975 0.0
          0.026 -0.00975 0.0
          0.0247 -0.00975 0.0
          0.0234 -0.00975 0.0
          0.0221 -0.00975 0.0
          0.0208 -0.00975 0.0
          0.0195 -0.00975 0.0
          0.0182 -0.00975 0.0
          0.0169 -0.00975 0.0
          0.0156 -0.00975 0.0
          0.0143 -0.00975 0.0
          0.013 -0.00975 0.0
          0.0117 -0.00975 0.0
          0.0104 -0.00975 0.0
          0.0091 -0.00975 0.0
          0.0078 -0.00975 0.0
          0.0065 -0.00975 0.0
          0.0052 -0.00975 0.0
          0.0039 -0.00975 0.0
          0.0026 -0.00975 0.0
          0.0013 -0.00975 0.0
          0 -0.00975 0.0
          0.039 -0.01105 0.0
          0.0377 -0.01105 0.0
          0.0364 -0.01105 0.0
          0.0351 -0.01105 0.0
          0.0338 -0.01105 0.0
          0.0325 -0.01105 0.0
          0.0312 -0.01105 0.0
          0.0299 -0.01105 0.0
          0.0286 -0.01105 0.0
          0.0273 -0.01105 0.0
          0.026 -0.01105 0.0
          0.0247 -0.01105 0.0
          0.0234 -0.01105 0.0
          0.0221 -0.01105 0.0
          0.0208 -0.01105 0.0
          0.0195 -0.01105 0.0
          0.0182 -0.01105 0.0
          0.0169 -0.01105 0.0
          0.0156 -0.01105 0.0
          0.0143 -0.01105 0.0
          0.013 -0.01105 0.0
          0.0117 -0.01105 0.0
          0.0104 -0.01105 0.0
          0.0091 -0.01105 0.0
          0.0078 -0.01105 0.0
          0.0065 -0.01105 0.0
          0.0052 -0.01105 0.0
          0.0039 -0.01105 0.0
          0.0026 -0.01105 0.0
          0.0013 -0.01105 0.0
          0 -0.01105 0.0
          0.039 -0.01235 0.0
          0.0377 -0.01235 0.0
          0.0364 -0.01235 0.0
          0.0351 -0.01235 0.0
          0.0338 -0.01235 0.0
          0.0325 -0.01235 0.0
          0.0312 -0.01235 0.0
          0.0299 -0.01235 0.0
          0.0286 -0.01235 0.0
          0.0273 -0.01235 0.0
          0.026 -0.01235 0.0
          0.0247 -0.01235 0.0
          0.0234 -0.01235 0.0
          0.0221 -0.01235 0.0
          0.0208 -0.01235 0.0
          0.0195 -0.01235 0.0
          0.0182 -0.01235 0.0
          0.0169 -0.01235 0.0
          0.0156 -0.01235 0.0
          0.0143 -0.01235 0.0
          0.013 -0.01235 0.0
          0.0117 -0.01235 0.0
          0.0104 -0.01235 0.0
          0.0091 -0.01235 0.0
          0.0078 -0.01235 0.0
          0.0065 -0.01235 0.0
          0.0052 -0.01235 0.0
          0.0039 -0.01235 0.0
          0.0026 -0.01235 0.0
          0.0013 -0.01235 0.0
          0 -0.01235 0.0
          0.039 -0.01365 0.0
          0.0377 -0.01365 0.0
          0.0364 -0.01365 0.0
          0.0351 -0.01365 0.0
          0.0338 -0.01365 0.0
          0.0325 -0.01365 0.0
          0.0312 -0.01365 0.0
          0.0299 -0.01365 0.0
          0.0286 -0.01365 0.0
          0.0273 -0.01365 0.0
          0.026 -0.01365 0.0
          0.0247 -0.01365 0.0
          0.0234 -0.01365 0.0
          0.0221 -0.01365 0.0
          0.0208 -0.01365 0.0
          0.0195 -0.01365 0.0
          0.0182 -0.01365 0.0
          0.0169 -0.01365 0.0
          0.0156 -0.01365 0.0
          0.0143 -0.01365 0.0
          0.013 -0.01365 0.0
          0.0117 -0.01365 0.0
          0.0104 -0.01365 0.0
          0.0091 -0.01365 0.0
          0.0078 -0.01365 0.0
          0.0065 -0.01365 0.0
          0.0052 -0.01365 0.0
          0.0039 -0.01365 0.0
          0.0026 -0.01365 0.0
          0.0013 -0.01365 0.0
          0 -0.01365 0.0
          0.039 -0.01495 0.0
          0.0377 -0.01495 0.0
          0.0364 -0.01495 0.0
          0.0351 -0.01495 0.0
          0.0338 -0.01495 0.0
          0.0325 -0.01495 0.0
          0.0312 -0.01495 0.0
          0.0299 -0.01495 0.0
          0.0286 -0.01495 0.0
          0.0273 -0.01495 0.0
          0.026 -0.01495 0.0
          0.0247 -0.01495 0.0
          0.0234 -0.01495 0.0
          0.0221 -0.01495 0.0
          0.0208 -0.01495 0.0