<?xml version="1.0"?>
<VTKFile type="UnstructuredGrid" version="0.1" byte_order="LittleEndian">
  <UnstructuredGrid>
    <Piece NumberOfPoints="961" NumberOfCells="900">
      <PointData Scalars="Temperature">
        <DataArray type="Float32" Name="Temperature" format="ascii">
          21.0035
          21.0592
          21.117
          21.1745
          21.2232
          21.2572
          21.2744
          21.2804
          21.2777
          21.2673
          21.247
          21.2202
          21.1931
          21.173
          21.1627
          21.1628
          21.1734
          21.1937
          21.2211
          21.2481
          21.2686
          21.2792
          21.282
          21.2767
          21.2609
          21.23
          21.1863
          21.136
          21.0874
          21.0432
          21.0026
          21.0575
          21.9533
          22.9136
          23.8777
          24.7181
          25.2649
          25.5329
          25.6032
          25.5751
          25.4089
          25.0765
          24.6017
          24.1384
          23.7963
          23.635
          23.6368
          23.802
          24.1485
          24.6162
          25.0951
          25.4302
          25.5985
          25.6293
          25.5663
          25.3204
          24.8218
          24.0651
          23.2186
          22.4084
          21.6986
          21.0421
          21.1068
          22.777
          24.5926
          26.7603
          28.5256
          29.6655
          29.9273
          29.9954
          29.9681
          29.8055
          29.059
          28.0077
          26.8759
          26.2429
          25.9524
          25.9559
          26.2537
          26.8949
          28.0367
          29.0962
          29.8484
          30.013
          30.0429
          29.9818
          29.7416
          28.6891
          27.0854
          25.1573
          23.6258
          22.3017
          21.0784
          21.1478
          23.457
          25.9892
          29.0173
          34.4548
          34.4555
          34.4558
          34.4559
          34.456
          34.4558
          34.4554
          30.67
          29.1932
          28.3643
          27.9945
          27.9994
          28.3793
          29.2195
          30.7103
          34.5212
          34.5217
          34.5218
          34.5218
          34.5217
          34.5214
          34.5208
          29.4457
          26.772
          24.6424
          22.8106
          21.1092
          21.1776
          23.9455
          26.9228
          30.4473
          34.4561
          34.4564
          34.4566
          34.4568
          34.4568
          34.4567
          34.4566
          32.4167
          30.9076
          30.0705
          29.6866
          29.6925
          30.0885
          30.9389
          32.4641
          34.5224
          34.5226
          34.5227
          34.5226
          34.5225
          34.5223
          34.5221
          30.9499
          27.8794
          25.3972
          23.1994
          21.1329
          21.1964
          24.2418
          27.4352
          30.856
          34.4582
          34.4584
          34.4586
          34.4587
          34.4587
          34.4587
          34.4586
          33.1408
          32.0652
          31.3518
          31.012
          31.0185
          31.3716
          32.0993
          33.1903
          34.5245
          34.5246
          34.5246
          34.5246
          34.5245
          34.5243
          34.5241
          31.4241
          28.5234
          25.889
          23.467
          21.1495
          21.2065
          24.3964
          27.6579
          31.0217
          34.4612
          34.4614
          34.4615
          34.4617
          34.4617
          34.4617
          34.4617
          33.5673
          32.8076
          32.273
          32.0041
          32.011
          32.2939
          32.843
          33.6177
          34.5275
          34.5276
          34.5276
          34.5275
          34.5274
          34.5273
          34.5271
          31.6384
          28.8408
          26.1771
          23.6337
          21.16
          21.2114
          24.4681
          27.7579
          31.0943
          34.4652
          34.4654
          34.4656
          34.4657
          34.4657
          34.4658
          34.4657
          33.8449
          33.3093
          32.923
          32.7249
          32.732
          32.9444
          33.3453
          33.8957
          34.5316
          34.5316
          34.5316
          34.5315
          34.5314
          34.5313
          34.5311
          31.7448
          29.0047
          26.3343
          23.7301
          21.1662
          21.2136
          24.501
          27.8039
          31.1285
          34.4703
          34.4705
          34.4706
          34.4707
          34.4708
          34.4708
          34.4708
          34.0349
          33.657
          33.382
          33.2405
          33.2477
          33.4037
          33.6933
          34.0859
          34.5366
          34.5366
          34.5366
          34.5365
          34.5365
          34.5363
          34.5362
          31.8013
          29.0916
          26.4193
          23.7833
          21.1697
          21.2147
          24.5167
          27.8261
          31.1465
          34.4763
          34.4765
          34.4767
          34.4768
          34.4769
          34.4769
          34.4769
          34.1687
          33.9016
          33.707
          33.6075
          33.6148
          33.7288
          33.938
          34.2198
          34.5427
          34.5427
          34.5427
          34.5426
          34.5425
          34.5424
          34.5422
          31.8333
          29.1391
          26.4658
          23.8125
          21.1716
          21.2152
          24.5248
          27.8382
          31.1578
          34.4834
          34.4836
          34.4838
          34.4839
          34.484
          34.484
          34.484
          34.2649
          34.0756
          33.9383
          33.869
          33.8763
          33.9601
          34.1121
          34.316
          34.5497
          34.5497
          34.5497
          34.5497
          34.5496
          34.5494
          34.5493
          31.8532
          29.1665
          26.492
          23.8288
          21.1727
          21.2155
          24.5296
          27.8461
          31.1666
          34.4915
          34.4917
          34.4919
          34.492
          34.4921
          34.4921
          34.4922
          34.3355
          34.2009
          34.104
          34.0562
          34.0635
          34.1259
          34.2374
          34.3865
          34.5578
          34.5578
          34.5578
          34.5577
          34.5576
          34.5575
          34.5573
          31.8672
          29.1836
          26.5076
          23.8384
          21.1733
          21.2158
          24.5333
          27.8525
          31.1746
          34.5007
          34.5009
          34.501
          34.5011
          34.5012
          34.5013
          34.5013
          34.3885
          34.2925
          34.2241
          34.1915
          34.1988
          34.246
          34.3289
          34.4395
          34.5669
          34.5669
          34.5669
          34.5668
          34.5667
          34.5666
          34.5664
          31.8785
          29.1957
          26.518
          23.8446
          21.1737
          21.216
          24.5365
          27.8584
          31.1828
          34.5108
          34.511
          34.5112
          34.5113
          34.5114
          34.5114
          34.5115
          34.4296
          34.3608
          34.3126
          34.2907
          34.2979
          34.3344
          34.3972
          34.4806
          34.577
          34.577
          34.577
          34.5769
          34.5768
          34.5767
          34.5765
          31.889
          29.2057
          26.526
          23.8492
          21.174
          21.2162
          24.5397
          27.8645
          31.1915
          34.5219
          34.5221
          34.5223
          34.5225
          34.5226
          34.5226
          34.5227
          34.4627
          34.4132
          34.3793
          34.3649
          34.3722
          34.4011
          34.4496
          34.5137
          34.5882
          34.5882
          34.5881
          34.588
          34.5879
          34.5878
          34.5876
          31.8996
          29.2151
          26.5333
          23.8533
          21.1743
          21.2164
          24.5432
          27.8711
          31.201
          34.5341
          34.5343
          34.5345
          34.5346
          34.5348
          34.5349
          34.5349
          34.4906
          34.4548
          34.4312
          34.4222
          34.4295
          34.453
          34.4912
          34.5415
          34.6003
          34.6003
          34.6002
          34.6001
          34.6
          34.5998
          34.5997
          31.9109
          29.2251
          26.541
          23.8576
          21.1745
          21.2166
          24.5472
          27.8784
          31.2114
          34.5472
          34.5474
          34.5476
          34.5478
          34.548
          34.5481
          34.5481
          34.5153
          34.4895
          34.4733
          34.4683
          34.4755
          34.495
          34.5258
          34.5661
          34.6135
          34.6135
          34.6134
          34.6133
          34.6131
          34.6129
          34.6127
          31.9238
          29.2369
          26.5503
          23.8629
          21.1749
          21.2169
          24.5519
          27.8871
          31.223
          34.5613
          34.5616
          34.5618
          34.5621
          34.5623
          34.5624
          34.5625
          34.5382
          34.5199
          34.5092
          34.5072
          34.5144
          34.531
          34.5562
          34.5889
          34.6278
          34.6277
          34.6276
          34.6274
          34.6272
          34.627
          34.6268
          31.9392
          29.2522
          26.5629
          23.8703
          21.1753
          21.2173
          24.5583
          27.898
          31.2366
          34.5764
          34.5766
          34.577
          34.5773
          34.5776
          34.5778
          34.5779
          34.5604
          34.548
          34.5417
          34.542
          34.5493
          34.5635
          34.5843
          34.6111
          34.6431
          34.643
          34.6428
          34.6425
          34.6422
          34.642
          34.6418
          31.9589
          29.2738
          26.5817
          23.8816
          21.176
          21.218
          24.5679
          27.9135
          31.2538
          34.5923
          34.5926
          34.5931
          34.5935
          34.594
          34.5943
          34.5944
          34.5828
          34.5755
          34.573
          34.5753
          34.5825
          34.5947
          34.6117
          34.6334
          34.6595
          34.6594
          34.6591
          34.6587
          34.6583
          34.6579
          34.6576
          31.9862
          29.307
          26.6122
          23.9003
          21.1773
          21.2187
          24.5847
          27.9386
          31.2781
          34.6091
          34.6095
          34.6101
          34.6108
          34.6115
          34.612
          34.6122
          34.6062
          34.6038
          34.6048
          34.609
          34.6162
          34.6264
          34.6399
          34.6567
          34.6772
          34.677
          34.6765
          34.6759
          34.6752
          34.6746
          34.6743
          32.027
          29.362
          26.6646
          23.9332
          21.1791
          21.2228
          24.6165
          27.9856
          31.3176
          34.6265
          34.627
          34.6279
          34.6291
          34.6302
          34.6311
          34.6314
          34.6314
          34.6342
          34.639
          34.645
          34.6522
          34.6605
          34.6702
          34.6818
          34.6962
          34.6959
          34.6951
          34.694
          34.6929
          34.692
          34.6916
          32.0927
          29.4574
          26.7588
          23.9924
          21.1849
          21.2189
          24.6871
          28.0797
          31.391
          34.6443
          34.645
          34.6464
          34.6483
          34.6502
          34.6517
          34.6522
          34.6595
          34.6683
          34.6773
          34.6855
          34.6927
          34.6988
          34.7042
          34.7097
          34.7169
          34.7164
          34.715
          34.7132
          34.7114
          34.71
          34.7094
          32.204
          29.6292
          26.9313
          24.107
          21.1837
          21.267
          24.8238
          28.287
          31.5376
          34.6622
          34.6631
          34.6654
          34.6686
          34.6718
          34.6742
          34.6751
          34.6916
          34.7078
          34.7219
          34.7327
          34.7398
          34.7433
          34.7436
          34.7417
          34.7396
          34.7388
          34.7364
          34.7333
          34.7303
          34.728
          34.7271
          32.3972
          29.9405
          27.2619
          24.3104
          21.2361
          21.1215
          25.2153
          28.7182
          31.8517
          34.6794
          34.6808
          34.6844
          34.6896
          34.6951
          34.6994
          34.7011
          34.7298
          34.7553
          34.7754
          34.7891
          34.7962
          34.7967
          34.7908
          34.7796
          34.7653
          34.7638
          34.7596
          34.7543
          34.7492
          34.7456
          34.7443
          32.7241
          30.5127
          27.8742
          24.7972
          21.0958
          21.9308
          25.7922
          29.7869
          32.4605
          34.6949
          34.697
          34.7028
          34.7111
          34.7207
          34.7286
          34.7319
          34.7773
          34.8144
          34.8409
          34.8575
          34.8645
          34.862
          34.8496
          34.8266
          34.7957
          34.7926
          34.7851
          34.7758
          34.7675
          34.7618
          34.7597
          33.2342
          31.4912
          29.1892
          25.4991
          21.9155
          18.7457
          29.0086
          31.8163
          33.443
          34.7072
          34.7104
          34.7194
          34.7322
          34.7477
          34.7649
          34.7708
          34.8415
          34.8896
          34.9216
          34.9407
          34.9477
          34.9426
          34.9245
          34.89
          34.8339
          34.8283
          34.8121
          34.797
          34.7843
          34.7751
          34.7719
          33.9343
          32.9499
          31.5238
          28.8748
          18.7279
          34.6513
          34.6701
          34.6842
          34.6977
          34.7112
          34.7201
          34.7334
          34.7512
          34.7739
          34.8021
          34.8465
          34.9335
          34.9843
          35.0201
          35.0414
          35.0484
          35.0412
          35.0191
          34.981
          34.9057
          34.8654
          34.8389
          34.8166
          34.7985
          34.7848
          34.7753
          34.7608
          34.7467
          34.733
          34.7188
          34.6999
          34.6588
          34.6719
          34.685
          34.6982
          34.7117
          34.7264
          34.744
          34.7664
          34.7956
          34.8343
          34.8859
          34.9417
          34.9924
          35.0277
          35.0489
          35.056
          35.0489
          35.0275
          34.9904
          34.9451
          34.8996
          34.8624
          34.8328
          34.8095
          34.7912
          34.7755
          34.7611
          34.7471
          34.7337
          34.7206
          34.7074
          34.6672
          34.6754
          34.6862
          34.699
          34.7135
          34.7302
          34.7505
          34.7763
          34.8096
          34.8535
          34.91
          34.9684
          35.0158
          35.0505
          35.0715
          35.0786
          35.0719
          35.0516
          35.0191
          34.9766
          34.9264
          34.8791
          34.8436
          34.8165
          34.795
          34.7772
          34.7617
          34.7476
          34.7349
          34.7241
          34.7158
          34.6734
          34.6769
          34.6868
          34.6994
          34.7142
          34.7316
          34.7528
          34.7797
          34.8144
          34.8599
          34.9215
          34.9841
          35.0314
          35.0657
          35.0866
          35.0937
          35.0872
          35.0675
          35.036
          34.9938
          34.9384
          34.8851
          34.8474
          34.8189
          34.7964
          34.7779
          34.762
          34.7478
          34.7354
          34.7255
          34.722
        </DataArray>
      </PointData>
      <CellData>
      </CellData>
      <Points>
        <DataArray type="Float32" NumberOfComponents="3" format="ascii">
          0.039 0.00195 0.0
          0.0377 0.00195 0.0
          0.0364 0.00195 0.0
          0.0351 0.00195 0.0
          0.0338 0.00195 0.0
          0.0325 0.00195 0.0
          0.0312 0.00195 0.0
          0.0299 0.00195 0.0
          0.0286 0.00195 0.0
          0.0273 0.00195 0.0
          0.026 0.00195 0.0
          0.0247 0.00195 0.0
          0.0234 0.00195 0.0
          0.0221 0.00195 0.0
          0.0208 0.00195 0.0
          0.0195 0.00195 0.0
          0.0182 0.00195 0.0
          0.0169 0.00195 0.0
          0.0156 0.00195 0.0
          0.0143 0.00195 0.0
          0.013 0.00195 0.0
          0.0117 0.00195 0.0
          0.0104 0.00195 0.0
          0.0091 0.00195 0.0
          0.0078 0.00195 0.0
          0.0065 0.00195 0.0
          0.0052 0.00195 0.0
          0.0039 0.00195 0.0
          0.0026 0.00195 0.0
          0.0013 0.00195 0.0
          0 0.00195 0.0
          0.039 0.00065 0.0
          0.0377 0.00065 0.0
          0.0364 0.00065 0.0
          0.0351 0.00065 0.0
          0.0338 0.00065 0.0
          0.0325 0.00065 0.0
          0.0312 0.00065 0.0
          0.0299 0.00065 0.0
          0.0286 0.00065 0.0
          0.0273 0.00065 0.0
          0.026 0.00065 0.0
          0.0247 0.00065 0.0
          0.0234 0.00065 0.0
          0.0221 0.00065 0.0
          0.0208 0.00065 0.0
          0.0195 0.00065 0.0
          0.0182 0.00065 0.0
          0.0169 0.00065 0.0
          0.0156 0.00065 0.0
          0.0143 0.00065 0.0
          0.013 0.00065 0.0
          0.0117 0.00065 0.0
          0.0104 0.00065 0.0
          0.0091 0.00065 0.0
          0.0078 0.00065 0.0
          0.0065 0.00065 0.0
          0.0052 0.00065 0.0
          0.0039 0.00065 0.0
          0.0026 0.00065 0.0
          0.0013 0.00065 0.0
          0 0.00065 0.0
          0.039 -0.00065 0.0
          0.0377 -0.00065 0.0
          0.0364 -0.00065 0.0
          0.0351 -0.00065 0.0
          0.0338 -0.00065 0.0
          0.0325 -0.00065 0.0
          0.0312 -0.00065 0.0
          0.0299 -0.00065 0.0
          0.0286 -0.00065 0.0
          0.0273 -0.00065 0.0
          0.026 -0.00065 0.0
          0.0247 -0.00065 0.0
          0.0234 -0.00065 0.0
          0.0221 -0.00065 0.0
          0.0208 -0.00065 0.0
          0.0195 -0.00065 0.0
          0.0182 -0.00065 0.0
          0.0169 -0.00065 0.0
          0.0156 -0.00065 0.0
          0.0143 -0.00065 0.0
          0.013 -0.00065 0.0
          0.0117 -0.00065 0.0
          0.0104 -0.00065 0.0
          0.0091 -0.00065 0.0
          0.0078 -0.00065 0.0
          0.0065 -0.00065 0.0
          0.0052 -0.00065 0.0
          0.0039 -0.00065 0.0
          0.0026 -0.00065 0.0
          0.0013 -0.00065 0.0
          0 -0.00065 0.0
          0.039 -0.00195 0.0
          0.0377 -0.00195 0.0
          0.0364 -0.00195 0.0
          0.0351 -0.00195 0.0
          0.0338 -0.00195 0.0
          0.0325 -0.00195 0.0
          0.0312 -0.00195 0.0
          0.0299 -0.00195 0.0
          0.0286 -0.00195 0.0
          0.0273 -0.00195 0.0
          0.026 -0.00195 0.0
          0.0247 -0.00195 0.0
          0.0234 -0.00195 0.0
          0.0221 -0.00195 0.0
          0.0208 -0.00195 0.0
          0.0195 -0.00195 0.0
          0.0182 -0.00195 0.0
          0.0169 -0.00195 0.0
          0.0156 -0.00195 0.0
          0.0143 -0.00195 0.0
          0.013 -0.00195 0.0
          0.0117 -0.00195 0.0
          0.0104 -0.00195 0.0
          0.0091 -0.00195 0.0
          0.0078 -0.00195 0.0
          0.0065 -0.00195 0.0
          0.0052 -0.00195 0.0
          0.0039 -0.00195 0.0
          0.0026 -0.00195 0.0
          0.0013 -0.00195 0.0
          0 -0.00195 0.0
          0.039 -0.00325 0.0
          0.0377 -0.00325 0.0
          0.0364 -0.00325 0.0
          0.0351 -0.00325 0.0
          0.0338 -0.00325 0.0
          0.0325 -0.00325 0.0
          0.0312 -0.00325 0.0
          0.0299 -0.00325 0.0
          0.0286 -0.00325 0.0
          0.0273 -0.00325 0.0
          0.026 -0.00325 0.0
          0.0247 -0.00325 0.0
          0.0234 -0.00325 0.0
          0.0221 -0.00325 0.0
          0.0208 -0.00325 0.0
          0.0195 -0.00325 0.0
          0.0182 -0.00325 0.0
          0.0169 -0.00325 0.0
          0.0156 -0.00325 0.0
          0.0143 -0.00325 0.0
          0.013 -0.00325 0.0
          0.0117 -0.00325 0.0
          0.0104 -0.00325 0.0
          0.0091 -0.00325 0.0
          0.0078 -0.00325 0.0
          0.0065 -0.00325 0.0
          0.0052 -0.00325 0.0
          0.0039 -0.00325 0.0
          0.0026 -0.00325 0.0
          0.0013 -0.00325 0.0
          0 -0.00325 0.0
          0.039 -0.00455 0.0
          0.0377 -0.00455 0.0
          0.0364 -0.00455 0.0
          0.0351 -0.00455 0.0
          0.0338 -0.00455 0.0
          0.0325 -0.00455 0.0
          0.0312 -0.00455 0.0
          0.0299 -0.00455 0.0
          0.0286 -0.00455 0.0
          0.0273 -0.00455 0.0
          0.026 -0.00455 0.0
          0.0247 -0.00455 0.0
          0.0234 -0.00455 0.0
          0.0221 -0.00455 0.0
          0.0208 -0.00455 0.0
          0.0195 -0.00455 0.0
          0.0182 -0.00455 0.0
          0.0169 -0.00455 0.0
          0.0156 -0.00455 0.0
          0.0143 -0.00455 0.0
          0.013 -0.00455 0.0
          0.0117 -0.00455 0.0
          0.0104 -0.00455 0.0
          0.0091 -0.00455 0.0
          0.0078 -0.00455 0.0
          0.0065 -0.00455 0.0
          0.0052 -0.00455 0.0
          0.0039 -0.00455 0.0
          0.0026 -0.00455 0.0
          0.0013 -0.00455 0.0
          0 -0.00455 0.0
          0.039 -0.00585 0.0
          0.0377 -0.00585 0.0
          0.0364 -0.00585 0.0
          0.0351 -0.00585 0.0
          0.0338 -0.00585 0.0
          0.0325 -0.00585 0.0
          0.0312 -0.00585 0.0
          0.0299 -0.00585 0.0
          0.0286 -0.00585 0.0
          0.0273 -0.00585 0.0
          0.026 -0.00585 0.0
          0.0247 -0.00585 0.0
          0.0234 -0.00585 0.0
          0.0221 -0.00585 0.0
          0.0208 -0.00585 0.0
          0.0195 -0.00585 0.0
          0.0182 -0.00585 0.0
          0.0169 -0.00585 0.0
          0.0156 -0.00585 0.0
          0.0143 -0.00585 0.0
          0.013 -0.00585 0.0
          0.0117 -0.00585 0.0
          0.0104 -0.00585 0.0
          0.0091 -0.00585 0.0
          0.0078 -0.00585 0.0
          0.0065 -0.00585 0.0
          0.0052 -0.00585 0.0
          0.0039 -0.00585 0.0
          0.0026 -0.00585 0.0
          0.0013 -0.00585 0.0
          0 -0.00585 0.0
          0.039 -0.00715 0.0
          0.0377 -0.00715 0.0
          0.0364 -0.00715 0.0
          0.0351 -0.00715 0.0
          0.0338 -0.00715 0.0
          0.0325 -0.00715 0.0
          0.0312 -0.00715 0.0
          0.0299 -0.00715 0.0
          0.0286 -0.00715 0.0
          0.0273 -0.00715 0.0
          0.026 -0.00715 0.0
          0.0247 -0.00715 0.0
          0.0234 -0.00715 0.0
          0.0221 -0.00715 0.0
          0.0208 -0.00715 0.0
          0.0195 -0.00715 0.0
          0.0182 -0.00715 0.0
          0.0169 -0.00715 0.0
          0.0156 -0.00715 0.0
          0.0143 -0.00715 0.0
          0.013 -0.00715 0.0
          0.0117 -0.00715 0.0
          0.0104 -0.00715 0.0
          0.0091 -0.00715 0.0
          0.0078 -0.00715 0.0
          0.0065 -0.00715 0.0
          0.0052 -0.00715 0.0
          0.0039 -0.00715 0.0
          0.0026 -0.00715 0.0
          0.0013 -0.00715 0.0
          0 -0.00715 0.0
          0.039 -0.00845 0.0
          0.0377 -0.00845 0.0
          0.0364 -0.00845 0.0
          0.0351 -0.00845 0.0
          0.0338 -0.00845 0.0
          0.0325 -0.00845 0.0
          0.0312 -0.00845 0.0
          0.0299 -0.00845 0.0
          0.0286 -0.00845 0.0
          0.0273 -0.00845 0.0
          0.026 -0.00845 0.0
          0.0247 -0.00845 0.0
          0.0234 -0.00845 0.0
          0.0221 -0.00845 0.0
          0.0208 -0.00845 0.0
          0.0195 -0.00845 0.0
          0.0182 -0.00845 0.0
          0.0169 -0.00845 0.0
          0.0156 -0.00845 0.0
          0.0143 -0.00845 0.0
          0.013 -0.00845 0.0
          0.0117 -0.00845 0.0
          0.0104 -0.00845 0.0
          0.0091 -0.00845 0.0
          0.0078 -0.00845 0.0
          0.0065 -0.00845 0.0
          0.0052 -0.00845 0.0
          0.0039 -0.00845 0.0
          0.0026 -0.00845 0.0
          0.0013 -0.00845 0.0
          0 -0.00845 0.0
          0.039 -0.00975 0.0
          0.0377 -0.00975 0.0
          0.0364 -0.00975 0.0
          0.0351 -0.00975 0.0
          0.0338 -0.00975 0.0
          0.0325 -0.00975 0.0
          0.0312 -0.00975 0.0
          0.0299 -0.00975 0.0
          0.0286 -0.00975 0.0
          0.0273 -0.00975 0.0
          0.026 -0.00975 0.0
          0.0247 -0.00975 0.0
          0.0234 -0.00975 0.0
          0.0221 -0.00975 0.0
          0.0208 -0.00975 0.0
          0.0195 -0.00975 0.0
          0.0182 -0.00975 0.0
          0.0169 -0.00975 0.0
          0.0156 -0.00975 0.0
          0.0143 -0.00975 0.0
          0.013 -0.00975 0.0
          0.0117 -0.00975 0.0
          0.0104 -0.00975 0.0
          0.0091 -0.00975 0.0
          0.0078 -0.00975 0.0
          0.0065 -0.00975 0.0
          0.0052 -0.00975 0.0
          0.0039 -0.00975 0.0
          0.0026 -0.00975 0.0
          0.0013 -0.00975 0.0
          0 -0.00975 0.0
          0.039 -0.01105 0.0
          0.0377 -0.01105 0.0
          0.0364 -0.01105 0.0
          0.0351 -0.01105 0.0
          0.0338 -0.01105 0.0
          0.0325 -0.01105 0.0
          0.0312 -0.01105 0.0
          0.0299 -0.01105 0.0
          0.0286 -0.01105 0.0
          0.0273 -0.01105 0.0
          0.026 -0.01105 0.0
          0.0247 -0.01105 0.0
          0.0234 -0.01105 0.0
          0.0221 -0.01105 0.0
          0.0208 -0.01105 0.0
          0.0195 -0.01105 0.0
          0.0182 -0.01105 0.0
          0.0169 -0.01105 0.0
          0.0156 -0.01105 0.0
          0.0143 -0.01105 0.0
          0.013 -0.01105 0.0
          0.0117 -0.01105 0.0
          0.0104 -0.01105 0.0
          0.0091 -0.01105 0.0
          0.0078 -0.01105 0.0
          0.0065 -0.01105 0.0
          0.0052 -0.01105 0.0
          0.0039 -0.01105 0.0
          0.0026 -0.01105 0.0
          0.0013 -0.01105 0.0
          0 -0.01105 0.0
          0.039 -0.01235 0.0
          0.0377 -0.01235 0.0
          0.0364 -0.01235 0.0
          0.0351 -0.01235 0.0
          0.0338 -0.01235 0.0
          0.0325 -0.01235 0.0
          0.0312 -0.01235 0.0
          0.0299 -0.01235 0.0
          0.0286 -0.01235 0.0
          0.0273 -0.01235 0.0
          0.026 -0.01235 0.0
          0.0247 -0.01235 0.0
          0.0234 -0.01235 0.0
          0.0221 -0.01235 0.0
          0.0208 -0.01235 0.0
          0.0195 -0.01235 0.0
          0.0182 -0.01235 0.0
          0.0169 -0.01235 0.0
          0.0156 -0.01235 0.0
          0.0143 -0.01235 0.0
          0.013 -0.01235 0.0
          0.0117 -0.01235 0.0
          0.0104 -0.01235 0.0
          0.0091 -0.01235 0.0
          0.0078 -0.01235 0.0
          0.0065 -0.01235 0.0
          0.0052 -0.01235 0.0
          0.0039 -0.01235 0.0
          0.0026 -0.01235 0.0
          0.0013 -0.01235 0.0
          0 -0.01235 0.0
          0.039 -0.01365 0.0
          0.0377 -0.01365 0.0
          0.0364 -0.01365 0.0
          0.0351 -0.01365 0.0
          0.0338 -0.01365 0.0
          0.0325 -0.01365 0.0
          0.0312 -0.01365 0.0
          0.0299 -0.01365 0.0
          0.0286 -0.01365 0.0
          0.0273 -0.01365 0.0
          0.026 -0.01365 0.0
          0.0247 -0.01365 0.0
          0.0234 -0.01365 0.0
          0.0221 -0.01365 0.0
          0.0208 -0.01365 0.0
          0.0195 -0.01365 0.0
          0.0182 -0.01365 0.0
          0.0169 -0.01365 0.0
          0.0156 -0.01365 0.0
          0.0143 -0.01365 0.0
          0.013 -0.01365 0.0
          0.0117 -0.01365 0.0
          0.0104 -0.01365 0.0
          0.0091 -0.01365 0.0
          0.0078 -0.01365 0.0
          0.0065 -0.01365 0.0
          0.0052 -0.01365 0.0
          0.0039 -0.01365 0.0
          0.0026 -0.01365 0.0
          0.0013 -0.01365 0.0
          0 -0.01365 0.0
          0.039 -0.01495 0.0
          0.0377 -0.01495 0.0
          0.0364 -0.01495 0.0
          0.0351 -0.01495 0.0
          0.0338 -0.01495 0.0
          0.0325 -0.01495 0.0
          0.0312 -0.01495 0.0
          0.0299 -0.01495 0.0
          0.0286 -0.01495 0.0
          0.0273 -0.01495 0.0
          0.026 -0.01495 0.0
          0.0247 -0.01495 0.0
          0.0234 -0.01495 0.0
          0.0221 -0.01495 0.0
          0.0208 -0.01495 0.0