<?xml version="1.0"?>
<VTKFile type="UnstructuredGrid" version="0.1" byte_order="LittleEndian">
  <UnstructuredGrid>
    <Piece NumberOfPoints="961" NumberOfCells="900">
      <PointData Scalars="Temperature">
        <DataArray type="Float32" Name="Temperature" format="ascii">
          21.0022
          21.0377
          21.0744
          21.111
          21.1419
          21.1636
          21.1745
          21.1783
          21.1766
          21.17
          21.157
          21.14
          21.1227
          21.11
          21.1034
          21.1035
          21.1103
          21.1233
          21.1409
          21.1581
          21.1712
          21.178
          21.1798
          21.1764
          21.1663
          21.1466
          21.1188
          21.0866
          21.0557
          21.0275
          21.0017
          21.0365
          21.606
          22.2166
          22.8297
          23.3642
          23.7121
          23.8825
          23.9273
          23.9094
          23.8035
          23.5919
          23.2896
          22.9947
          22.7771
          22.6748
          22.6766
          22.7827
          23.0045
          23.3037
          23.6099
          23.8241
          23.9317
          23.9514
          23.9112
          23.7544
          23.4364
          22.9538
          22.414
          21.8974
          21.4451
          21.0268
          21.0679
          22.1297
          23.2842
          24.663
          25.7861
          26.5114
          26.6779
          26.7212
          26.7038
          26.6003
          26.1248
          25.4554
          24.7348
          24.3321
          24.1479
          24.1513
          24.3426
          24.7532
          25.4836
          26.161
          26.6418
          26.747
          26.7662
          26.7273
          26.574
          25.9025
          24.8795
          23.6497
          22.6733
          21.8294
          21.0499
          21.0939
          22.5621
          24.1724
          26.0987
          29.5595
          29.56
          29.5601
          29.5602
          29.5603
          29.5602
          29.5599
          27.1486
          26.208
          25.6806
          25.446
          25.4508
          25.6951
          26.2336
          27.1877
          29.6239
          29.6242
          29.6243
          29.6243
          29.6242
          29.624
          29.6236
          26.3847
          24.6791
          23.3212
          22.1537
          21.0696
          21.1129
          22.8728
          24.7662
          27.0086
          29.5606
          29.5607
          29.5609
          29.561
          29.561
          29.5609
          29.5609
          28.2599
          27.2981
          26.7653
          26.5219
          26.5276
          26.7828
          27.3286
          28.3059
          29.6249
          29.6249
          29.625
          29.625
          29.6249
          29.6248
          29.6246
          27.3443
          25.3853
          23.8025
          22.4016
          21.0847
          21.1248
          23.0614
          25.0924
          27.2691
          29.5625
          29.5627
          29.5628
          29.5628
          29.5629
          29.5629
          29.5628
          28.7208
          28.0346
          27.5802
          27.365
          27.3713
          27.5996
          28.0677
          28.7689
          29.6268
          29.6269
          29.6269
          29.6269
          29.6268
          29.6267
          29.6266
          27.6471
          25.7962
          24.1162
          22.5722
          21.0953
          21.1313
          23.1599
          25.2346
          27.3753
          29.5655
          29.5656
          29.5657
          29.5658
          29.5659
          29.5659
          29.5658
          28.9929
          28.5074
          28.1667
          27.9965
          28.0032
          28.187
          28.5418
          29.0419
          29.6298
          29.6299
          29.6299
          29.6298
          29.6298
          29.6297
          29.6296
          27.7845
          25.9991
          24.3002
          22.6787
          21.102
          21.1345
          23.2059
          25.299
          27.4225
          29.5696
          29.5697
          29.5698
          29.5699
          29.5699
          29.5699
          29.5699
          29.1707
          28.8276
          28.581
          28.4558
          28.4628
          28.6019
          28.8626
          29.2201
          29.6339
          29.6339
          29.6339
          29.6339
          29.6338
          29.6337
          29.6336
          27.8535
          26.1045
          24.4009
          22.7404
          21.106
          21.1359
          23.2273
          25.3291
          27.4458
          29.5747
          29.5749
          29.575
          29.575
          29.5751
          29.5751
          29.5751
          29.2933
          29.0503
          28.8745
          28.7852
          28.7923
          28.8955
          29.0856
          29.3429
          29.6391
          29.6391
          29.6391
          29.639
          29.639
          29.6389
          29.6388
          27.8911
          26.161
          24.4559
          22.7747
          21.1082
          21.1366
          23.2379
          25.3445
          27.459
          29.581
          29.5811
          29.5812
          29.5813
          29.5813
          29.5813
          29.5813
          29.3807
          29.208
          29.0832
          29.0207
          29.0277
          29.1044
          29.2434
          29.4303
          29.6453
          29.6453
          29.6453
          29.6452
          29.6452
          29.6451
          29.645
          27.9134
          26.1927
          24.4865
          22.7938
          21.1095
          21.137
          23.2438
          25.3536
          27.4683
          29.5883
          29.5884
          29.5885
          29.5886
          29.5886
          29.5887
          29.5887
          29.4445
          29.3213
          29.2328
          29.1895
          29.1966
          29.2541
          29.3567
          29.4942
          29.6526
          29.6526
          29.6526
          29.6525
          29.6525
          29.6524
          29.6523
          27.9283
          26.2118
          24.5043
          22.8048
          21.1102
          21.1373
          23.2477
          25.3603
          27.4763
          29.5967
          29.5968
          29.5969
          29.597
          29.597
          29.5971
          29.5971
          29.4926
          29.4041
          29.3413
          29.3116
          29.3187
          29.3626
          29.4395
          29.5423
          29.661
          29.661
          29.661
          29.6609
          29.6608
          29.6608
          29.6607
          27.9398
          26.2247
          24.5156
          22.8116
          21.1106
          21.1375
          23.251
          25.3661
          27.4842
          29.6061
          29.6063
          29.6064
          29.6065
          29.6065
          29.6065
          29.6066
          29.53
          29.4659
          29.4214
          29.4013
          29.4083
          29.4426
          29.5014
          29.5796
          29.6704
          29.6704
          29.6704
          29.6704
          29.6703
          29.6702
          29.6701
          27.9499
          26.2346
          24.5237
          22.8163
          21.1109
          21.1377
          23.2541
          25.372
          27.4925
          29.6167
          29.6168
          29.6169
          29.617
          29.6171
          29.6171
          29.6171
          29.5602
          29.5135
          29.4818
          29.4685
          29.4756
          29.5031
          29.549
          29.6099
          29.681
          29.681
          29.6809
          29.6809
          29.6808
          29.6807
          29.6806
          27.9599
          26.2434
          24.5304
          22.8201
          21.1111
          21.1379
          23.2574
          25.3782
          27.5014
          29.6283
          29.6284
          29.6285
          29.6286
          29.6287
          29.6288
          29.6288
          29.5859
          29.5515
          29.5289
          29.5205
          29.5276
          29.5502
          29.587
          29.6355
          29.6926
          29.6926
          29.6925
          29.6925
          29.6924
          29.6923
          29.6922
          27.9702
          26.2521
          24.5369
          22.8236
          21.1114
          21.1381
          23.2609
          25.3849
          27.5111
          29.641
          29.6411
          29.6412
          29.6413
          29.6414
          29.6415
          29.6415
          29.6088
          29.5833
          29.5673
          29.5624
          29.5695
          29.5886
          29.6187
          29.6584
          29.7053
          29.7053
          29.7052
          29.7051
          29.705
          29.7049
          29.7048
          27.9814
          26.2615
          24.5438
          22.8274
          21.1116
          21.1383
          23.2648
          25.3923
          27.5218
          29.6547
          29.6548
          29.655
          29.6551
          29.6552
          29.6553
          29.6554
          29.6301
          29.6112
          29.6001
          29.5978
          29.6049
          29.6214
          29.6466
          29.6797
          29.7191
          29.7191
          29.719
          29.7189
          29.7187
          29.7186
          29.7185
          27.9939
          26.2723
          24.5519
          22.8319
          21.1119
          21.1386
          23.2693
          25.4007
          27.5336
          29.6694
          29.6696
          29.6698
          29.67
          29.6702
          29.6703
          29.6703
          29.6509
          29.6371
          29.6298
          29.6295
          29.6366
          29.651
          29.6725
          29.7004
          29.734
          29.734
          29.7339
          29.7337
          29.7335
          29.7333
          29.7332
          28.0084
          26.2855
          24.5623
          22.8378
          21.1123
          21.1389
          23.275
          25.4108
          27.5469
          29.6852
          29.6854
          29.6856
          29.6859
          29.6862
          29.6864
          29.6864
          29.6719
          29.6623
          29.6581
          29.6595
          29.6666
          29.6793
          29.6977
          29.7214
          29.7501
          29.75
          29.7498
          29.7496
          29.7493
          29.7491
          29.7489
          28.026
          26.3031
          24.5769
          22.8464
          21.1128
          21.1395
          23.2828
          25.424
          27.5628
          29.7019
          29.7022
          29.7025
          29.7029
          29.7033
          29.7036
          29.7037
          29.6937
          29.6881
          29.6867
          29.6896
          29.6966
          29.7079
          29.7234
          29.7431
          29.7673
          29.7672
          29.7669
          29.7665
          29.7661
          29.7658
          29.7656
          28.0486
          26.3284
          24.5991
          22.8598
          21.1137
          21.14
          23.2954
          25.4436
          27.5835
          29.7195
          29.7198
          29.7204
          29.721
          29.7217
          29.7221
          29.7223
          29.717
          29.7154
          29.7169
          29.7214
          29.7284
          29.7381
          29.7506
          29.7663
          29.7858
          29.7856
          29.7852
          29.7846
          29.7839
          29.7834
          29.7832
          28.0804
          26.3678
          24.6356
          22.8824
          21.1149
          21.1428
          23.3177
          25.4774
          27.6142
          29.7379
          29.7383
          29.7391
          29.7402
          29.7412
          29.742
          29.7423
          29.7424
          29.7454
          29.7503
          29.7564
          29.7634
          29.7714
          29.7806
          29.7917
          29.8057
          29.8055
          29.8047
          29.8037
          29.8026
          29.8018
          29.8015
          28.1284
          26.4336
          24.6992
          22.922
          21.1188
          21.1404
          23.365
          25.5416
          27.667
          29.7567
          29.7573
          29.7586
          29.7604
          29.7622
          29.7635
          29.764
          29.7708
          29.7795
          29.7883
          29.7965
          29.8035
          29.8094
          29.8146
          29.82
          29.8273
          29.8269
          29.8256
          29.8238
          29.8221
          29.8208
          29.8203
          28.206
          26.5487
          24.8134
          22.9974
          21.1181
          21.1715
          23.4549
          25.6787
          27.7669
          29.7757
          29.7765
          29.7787
          29.7816
          29.7847
          29.787
          29.7879
          29.8036
          29.8194
          29.8331
          29.8437
          29.8507
          29.8541
          29.8543
          29.8526
          29.851
          29.8502
          29.848
          29.845
          29.8421
          29.84
          29.8392
          28.3365
          26.754
          25.0296
          23.1302
          21.152
          21.0779
          23.7089
          25.9601
          27.9746
          29.7942
          29.7955
          29.7989
          29.8038
          29.809
          29.8131
          29.8147
          29.8425
          29.8674
          29.8871
          29.9006
          29.9075
          29.908
          29.9022
          29.8913
          29.8777
          29.8762
          29.8722
          29.8671
          29.8623
          29.8589
          29.8577
          28.5534
          27.1276
          25.4278
          23.4459
          21.0615
          21.5993
          24.0824
          26.6521
          28.3721
          29.8112
          29.8132
          29.8185
          29.8263
          29.8355
          29.8431
          29.8463
          29.8907
          29.9273
          29.9534
          29.9697
          29.9767
          29.9742
          29.9618
          29.9392
          29.909
          29.9059
          29.8986
          29.8897
          29.8819
          29.8766
          29.8747
          28.8884
          27.7638
          26.2797
          23.9006
          21.5908
          19.5477
          26.1563
          27.9633
          29.0103
          29.8255
          29.8283
          29.8365
          29.8485
          29.8634
          29.8802
          29.886
          29.9558
          30.0035
          30.0351
          30.0541
          30.061
          30.0558
          30.0378
          30.0035
          29.9479
          29.9425
          29.9266
          29.912
          29.9001
          29.8918
          29.8889
          29.3462
          28.7104
          27.7904
          26.0817
          19.533
          29.7938
          29.8061
          29.8157
          29.8251
          29.8334
          29.8399
          29.8517
          29.8685
          29.8904
          29.918
          29.9621
          30.0489
          30.0994
          30.135
          30.1561
          30.1631
          30.1558
          30.1338
          30.0958
          30.0204
          29.9802
          29.9542
          29.9326
          29.9157
          29.9033
          29.8962
          29.8867
          29.8765
          29.8667
          29.857
          29.8446
          29.7987
          29.8073
          29.8163
          29.8256
          29.8357
          29.8477
          29.8633
          29.8845
          29.9126
          29.9506
          30.0017
          30.0572
          30.1075
          30.1426
          30.1637
          30.1706
          30.1636
          30.1422
          30.1052
          30.0601
          30.0149
          29.9784
          29.9496
          29.9277
          29.9112
          29.8983
          29.8872
          29.8768
          29.8672
          29.8581
          29.8494
          29.8041
          29.8096
          29.8172
          29.8267
          29.8381
          29.8523
          29.8706
          29.8948
          29.927
          29.9701
          30.0259
          30.0839
          30.1309
          30.1654
          30.1863
          30.1933
          30.1866
          30.1663
          30.134
          30.0918
          30.042
          29.9954
          29.961
          29.9353
          29.9159
          29.9006
          29.8881
          29.8773
          29.868
          29.8604
          29.8549
          29.8081
          29.8106
          29.8177
          29.8272
          29.839
          29.8539
          29.873
          29.8983
          29.9319
          29.9765
          30.0375
          30.0996
          30.1465
          30.1806
          30.2013
          30.2084
          30.2018
          30.1822
          30.1509
          30.109
          30.0541
          30.0016
          29.965
          29.938
          29.9175
          29.9015
          29.8885
          29.8776
          29.8684
          29.8613
          29.8588
        </DataArray>
      </PointData>
      <CellData>
      </CellData>
      <Points>
        <DataArray type="Float32" NumberOfComponents="3" format="ascii">
          0.039 0.00195 0.0
          0.0377 0.00195 0.0
          0.0364 0.00195 0.0
          0.0351 0.00195 0.0
          0.0338 0.00195 0.0
          0.0325 0.00195 0.0
          0.0312 0.00195 0.0
          0.0299 0.00195 0.0
          0.0286 0.00195 0.0
          0.0273 0.00195 0.0
          0.026 0.00195 0.0
          0.0247 0.00195 0.0
          0.0234 0.00195 0.0
          0.0221 0.00195 0.0
          0.0208 0.00195 0.0
          0.0195 0.00195 0.0
          0.0182 0.00195 0.0
          0.0169 0.00195 0.0
          0.0156 0.00195 0.0
          0.0143 0.00195 0.0
          0.013 0.00195 0.0
          0.0117 0.00195 0.0
          0.0104 0.00195 0.0
          0.0091 0.00195 0.0
          0.0078 0.00195 0.0
          0.0065 0.00195 0.0
          0.0052 0.00195 0.0
          0.0039 0.00195 0.0
          0.0026 0.00195 0.0
          0.0013 0.00195 0.0
          0 0.00195 0.0
          0.039 0.00065 0.0
          0.0377 0.00065 0.0
          0.0364 0.00065 0.0
          0.0351 0.00065 0.0
          0.0338 0.00065 0.0
          0.0325 0.00065 0.0
          0.0312 0.00065 0.0
          0.0299 0.00065 0.0
          0.0286 0.00065 0.0
          0.0273 0.00065 0.0
          0.026 0.00065 0.0
          0.0247 0.00065 0.0
          0.0234 0.00065 0.0
          0.0221 0.00065 0.0
          0.0208 0.00065 0.0
          0.0195 0.00065 0.0
          0.0182 0.00065 0.0
          0.0169 0.00065 0.0
          0.0156 0.00065 0.0
          0.0143 0.00065 0.0
          0.013 0.00065 0.0
          0.0117 0.00065 0.0
          0.0104 0.00065 0.0
          0.0091 0.00065 0.0
          0.0078 0.00065 0.0
          0.0065 0.00065 0.0
          0.0052 0.00065 0.0
          0.0039 0.00065 0.0
          0.0026 0.00065 0.0
          0.0013 0.00065 0.0
          0 0.00065 0.0
          0.039 -0.00065 0.0
          0.0377 -0.00065 0.0
          0.0364 -0.00065 0.0
          0.0351 -0.00065 0.0
          0.0338 -0.00065 0.0
          0.0325 -0.00065 0.0
          0.0312 -0.00065 0.0
          0.0299 -0.00065 0.0
          0.0286 -0.00065 0.0
          0.0273 -0.00065 0.0
          0.026 -0.00065 0.0
          0.0247 -0.00065 0.0
          0.0234 -0.00065 0.0
          0.0221 -0.00065 0.0
          0.0208 -0.00065 0.0
          0.0195 -0.00065 0.0
          0.0182 -0.00065 0.0
          0.0169 -0.00065 0.0
          0.0156 -0.00065 0.0
          0.0143 -0.00065 0.0
          0.013 -0.00065 0.0
          0.0117 -0.00065 0.0
          0.0104 -0.00065 0.0
          0.0091 -0.00065 0.0
          0.0078 -0.00065 0.0
          0.0065 -0.00065 0.0
          0.0052 -0.00065 0.0
          0.0039 -0.00065 0.0
          0.0026 -0.00065 0.0
          0.0013 -0.00065 0.0
          0 -0.00065 0.0
          0.039 -0.00195 0.0
          0.0377 -0.00195 0.0
          0.0364 -0.00195 0.0
          0.0351 -0.00195 0.0
          0.0338 -0.00195 0.0
          0.0325 -0.00195 0.0
          0.0312 -0.00195 0.0
          0.0299 -0.00195 0.0
          0.0286 -0.00195 0.0
          0.0273 -0.00195 0.0
          0.026 -0.00195 0.0
          0.0247 -0.00195 0.0
          0.0234 -0.00195 0.0
          0.0221 -0.00195 0.0
          0.0208 -0.00195 0.0
          0.0195 -0.00195 0.0
          0.0182 -0.00195 0.0
          0.0169 -0.00195 0.0
          0.0156 -0.00195 0.0
          0.0143 -0.00195 0.0
          0.013 -0.00195 0.0
          0.0117 -0.00195 0.0
          0.0104 -0.00195 0.0
          0.0091 -0.00195 0.0
          0.0078 -0.00195 0.0
          0.0065 -0.00195 0.0
          0.0052 -0.00195 0.0
          0.0039 -0.00195 0.0
          0.0026 -0.00195 0.0
          0.0013 -0.00195 0.0
          0 -0.00195 0.0
          0.039 -0.00325 0.0
          0.0377 -0.00325 0.0
          0.0364 -0.00325 0.0
          0.0351 -0.00325 0.0
          0.0338 -0.00325 0.0
          0.0325 -0.00325 0.0
          0.0312 -0.00325 0.0
          0.0299 -0.00325 0.0
          0.0286 -0.00325 0.0
          0.0273 -0.00325 0.0
          0.026 -0.00325 0.0
          0.0247 -0.00325 0.0
          0.0234 -0.00325 0.0
          0.0221 -0.00325 0.0
          0.0208 -0.00325 0.0
          0.0195 -0.00325 0.0
          0.0182 -0.00325 0.0
          0.0169 -0.00325 0.0
          0.0156 -0.00325 0.0
          0.0143 -0.00325 0.0
          0.013 -0.00325 0.0
          0.0117 -0.00325 0.0
          0.0104 -0.00325 0.0
          0.0091 -0.00325 0.0
          0.0078 -0.00325 0.0
          0.0065 -0.00325 0.0
          0.0052 -0.00325 0.0
          0.0039 -0.00325 0.0
          0.0026 -0.00325 0.0
          0.0013 -0.00325 0.0
          0 -0.00325 0.0
          0.039 -0.00455 0.0
          0.0377 -0.00455 0.0
          0.0364 -0.00455 0.0
          0.0351 -0.00455 0.0
          0.0338 -0.00455 0.0
          0.0325 -0.00455 0.0
          0.0312 -0.00455 0.0
          0.0299 -0.00455 0.0
          0.0286 -0.00455 0.0
          0.0273 -0.00455 0.0
          0.026 -0.00455 0.0
          0.0247 -0.00455 0.0
          0.0234 -0.00455 0.0
          0.0221 -0.00455 0.0
          0.0208 -0.00455 0.0
          0.0195 -0.00455 0.0
          0.0182 -0.00455 0.0
          0.0169 -0.00455 0.0
          0.0156 -0.00455 0.0
          0.0143 -0.00455 0.0
          0.013 -0.00455 0.0
          0.0117 -0.00455 0.0
          0.0104 -0.00455 0.0
          0.0091 -0.00455 0.0
          0.0078 -0.00455 0.0
          0.0065 -0.00455 0.0
          0.0052 -0.00455 0.0
          0.0039 -0.00455 0.0
          0.0026 -0.00455 0.0
          0.0013 -0.00455 0.0
          0 -0.00455 0.0
          0.039 -0.00585 0.0
          0.0377 -0.00585 0.0
          0.0364 -0.00585 0.0
          0.0351 -0.00585 0.0
          0.0338 -0.00585 0.0
          0.0325 -0.00585 0.0
          0.0312 -0.00585 0.0
          0.0299 -0.00585 0.0
          0.0286 -0.00585 0.0
          0.0273 -0.00585 0.0
          0.026 -0.00585 0.0
          0.0247 -0.00585 0.0
          0.0234 -0.00585 0.0
          0.0221 -0.00585 0.0
          0.0208 -0.00585 0.0
          0.0195 -0.00585 0.0
          0.0182 -0.00585 0.0
          0.0169 -0.00585 0.0
          0.0156 -0.00585 0.0
          0.0143 -0.00585 0.0
          0.013 -0.00585 0.0
          0.0117 -0.00585 0.0
          0.0104 -0.00585 0.0
          0.0091 -0.00585 0.0
          0.0078 -0.00585 0.0
          0.0065 -0.00585 0.0
          0.0052 -0.00585 0.0
          0.0039 -0.00585 0.0
          0.0026 -0.00585 0.0
          0.0013 -0.00585 0.0
          0 -0.00585 0.0
          0.039 -0.00715 0.0
          0.0377 -0.00715 0.0
          0.0364 -0.00715 0.0
          0.0351 -0.00715 0.0
          0.0338 -0.00715 0.0
          0.0325 -0.00715 0.0
          0.0312 -0.00715 0.0
          0.0299 -0.00715 0.0
          0.0286 -0.00715 0.0
          0.0273 -0.00715 0.0
          0.026 -0.00715 0.0
          0.0247 -0.00715 0.0
          0.0234 -0.00715 0.0
          0.0221 -0.00715 0.0
          0.0208 -0.00715 0.0
          0.0195 -0.00715 0.0
          0.0182 -0.00715 0.0
          0.0169 -0.00715 0.0
          0.0156 -0.00715 0.0
          0.0143 -0.00715 0.0
          0.013 -0.00715 0.0
          0.0117 -0.00715 0.0
          0.0104 -0.00715 0.0
          0.0091 -0.00715 0.0
          0.0078 -0.00715 0.0
          0.0065 -0.00715 0.0
          0.0052 -0.00715 0.0
          0.0039 -0.00715 0.0
          0.0026 -0.00715 0.0
          0.0013 -0.00715 0.0
          0 -0.00715 0.0
          0.039 -0.00845 0.0
          0.0377 -0.00845 0.0
          0.0364 -0.00845 0.0
          0.0351 -0.00845 0.0
          0.0338 -0.00845 0.0
          0.0325 -0.00845 0.0
          0.0312 -0.00845 0.0
          0.0299 -0.00845 0.0
          0.0286 -0.00845 0.0
          0.0273 -0.00845 0.0
          0.026 -0.00845 0.0
          0.0247 -0.00845 0.0
          0.0234 -0.00845 0.0
          0.0221 -0.00845 0.0
          0.0208 -0.00845 0.0
          0.0195 -0.00845 0.0
          0.0182 -0.00845 0.0
          0.0169 -0.00845 0.0
          0.0156 -0.00845 0.0
          0.0143 -0.00845 0.0
          0.013 -0.00845 0.0
          0.0117 -0.00845 0.0
          0.0104 -0.00845 0.0
          0.0091 -0.00845 0.0
          0.0078 -0.00845 0.0
          0.0065 -0.00845 0.0
          0.0052 -0.00845 0.0
          0.0039 -0.00845 0.0
          0.0026 -0.00845 0.0
          0.0013 -0.00845 0.0
          0 -0.00845 0.0
          0.039 -0.00975 0.0
          0.0377 -0.00975 0.0
          0.0364 -0.00975 0.0
          0.0351 -0.00975 0.0
          0.0338 -0.00975 0.0
          0.0325 -0.00975 0.0
          0.0312 -0.00975 0.0
          0.0299 -0.00975 0.0
          0.0286 -0.00975 0.0
          0.0273 -0.00975 0.0
          0.026 -0.00975 0.0
          0.0247 -0.00975 0.0
          0.0234 -0.00975 0.0
          0.0221 -0.00975 0.0
          0.0208 -0.00975 0.0
          0.0195 -0.00975 0.0
          0.0182 -0.00975 0.0
          0.0169 -0.00975 0.0
          0.0156 -0.00975 0.0
          0.0143 -0.00975 0.0
          0.013 -0.00975 0.0
          0.0117 -0.00975 0.0
          0.0104 -0.00975 0.0
          0.0091 -0.00975 0.0
          0.0078 -0.00975 0.0
          0.0065 -0.00975 0.0
          0.0052 -0.00975 0.0
          0.0039 -0.00975 0.0
          0.0026 -0.00975 0.0
          0.0013 -0.00975 0.0
          0 -0.00975 0.0
          0.039 -0.01105 0.0
          0.0377 -0.01105 0.0
          0.0364 -0.01105 0.0
          0.0351 -0.01105 0.0
          0.0338 -0.01105 0.0
          0.0325 -0.01105 0.0
          0.0312 -0.01105 0.0
          0.0299 -0.01105 0.0
          0.0286 -0.01105 0.0
          0.0273 -0.01105 0.0
          0.026 -0.01105 0.0
          0.0247 -0.01105 0.0
          0.0234 -0.01105 0.0
          0.0221 -0.01105 0.0
          0.0208 -0.01105 0.0
          0.0195 -0.01105 0.0
          0.0182 -0.01105 0.0
          0.0169 -0.01105 0.0
          0.0156 -0.01105 0.0
          0.0143 -0.01105 0.0
          0.013 -0.01105 0.0
          0.0117 -0.01105 0.0
          0.0104 -0.01105 0.0
          0.0091 -0.01105 0.0
          0.0078 -0.01105 0.0
          0.0065 -0.01105 0.0
          0.0052 -0.01105 0.0
          0.0039 -0.01105 0.0
          0.0026 -0.01105 0.0
          0.0013 -0.01105 0.0
          0 -0.01105 0.0
          0.039 -0.01235 0.0
          0.0377 -0.01235 0.0
          0.0364 -0.01235 0.0
          0.0351 -0.01235 0.0
          0.0338 -0.01235 0.0
          0.0325 -0.01235 0.0
          0.0312 -0.01235 0.0
          0.0299 -0.01235 0.0
          0.0286 -0.01235 0.0
          0.0273 -0.01235 0.0
          0.026 -0.01235 0.0
          0.0247 -0.01235 0.0
          0.0234 -0.01235 0.0
          0.0221 -0.01235 0.0
          0.0208 -0.01235 0.0
          0.0195 -0.01235 0.0
          0.0182 -0.01235 0.0
          0.0169 -0.01235 0.0
          0.0156 -0.01235 0.0
          0.0143 -0.01235 0.0
          0.013 -0.01235 0.0
          0.0117 -0.01235 0.0
          0.0104 -0.01235 0.0
          0.0091 -0.01235 0.0
          0.0078 -0.01235 0.0
          0.0065 -0.01235 0.0
          0.0052 -0.01235 0.0
          0.0039 -0.01235 0.0
          0.0026 -0.01235 0.0
          0.0013 -0.01235 0.0
          0 -0.01235 0.0
          0.039 -0.01365 0.0
          0.0377 -0.01365 0.0
          0.0364 -0.01365 0.0
          0.0351 -0.01365 0.0
          0.0338 -0.01365 0.0
          0.0325 -0.01365 0.0
          0.0312 -0.01365 0.0
          0.0299 -0.01365 0.0
          0.0286 -0.01365 0.0
          0.0273 -0.01365 0.0
          0.026 -0.01365 0.0
          0.0247 -0.01365 0.0
          0.0234 -0.01365 0.0
          0.0221 -0.01365 0.0
          0.0208 -0.01365 0.0
          0.0195 -0.01365 0.0
          0.0182 -0.01365 0.0
          0.0169 -0.01365 0.0
          0.0156 -0.01365 0.0
          0.0143 -0.01365 0.0
          0.013 -0.01365 0.0
          0.0117 -0.01365 0.0
          0.0104 -0.01365 0.0
          0.0091 -0.01365 0.0
          0.0078 -0.01365 0.0
          0.0065 -0.01365 0.0
          0.0052 -0.01365 0.0
          0.0039 -0.01365 0.0
          0.0026 -0.01365 0.0
          0.0013 -0.01365 0.0
          0 -0.01365 0.0
          0.039 -0.01495 0.0
          0.0377 -0.01495 0.0
          0.0364 -0.01495 0.0
          0.0351 -0.01495 0.0
          0.0338 -0.01495 0.0
          0.0325 -0.01495 0.0
          0.0312 -0.01495 0.0
          0.0299 -0.01495 0.0
          0.0286 -0.01495 0.0
          0.0273 -0.01495 0.0
          0.026 -0.01495 0.0
          0.0247 -0.01495 0.0
          0.0234 -0.01495 0.0
          0.0221 -0.01495 0.0