<?xml version="1.0"?>
<VTKFile type="UnstructuredGrid" version="0.1" byte_order="LittleEndian">
  <UnstructuredGrid>
    <Piece NumberOfPoints="961" NumberOfCells="900">
      <PointData Scalars="Temperature">
        <DataArray type="Float32" Name="Temperature" format="ascii">
          21.002
          21.0344
          21.068
          21.1015
          21.1298
          21.1496
          21.1596
          21.1631
          21.1615
          21.1555
          21.1436
          21.1281
          21.1122
          21.1006
          21.0946
          21.0947
          21.1009
          21.1128
          21.1289
          21.1447
          21.1567
          21.1629
          21.1646
          21.1614
          21.1523
          21.1342
          21.1087
          21.0793
          21.051
          21.0252
          21.0015
          21.0334
          21.5543
          22.1129
          22.6737
          23.1627
          23.4809
          23.6368
          23.6778
          23.6614
          23.5645
          23.3709
          23.0943
          22.8244
          22.6254
          22.5319
          22.5337
          22.631
          22.8342
          23.1083
          23.3888
          23.585
          23.6836
          23.7016
          23.6648
          23.5213
          23.2301
          22.7883
          22.2942
          21.8214
          21.4074
          21.0245
          21.0621
          22.0333
          23.0894
          24.3508
          25.3782
          26.0418
          26.1941
          26.2338
          26.2179
          26.1231
          25.688
          25.0754
          24.4161
          24.0477
          23.8792
          23.8826
          24.0581
          24.4344
          25.1035
          25.7241
          26.1645
          26.2608
          26.2784
          26.2427
          26.1025
          25.4877
          24.5511
          23.4253
          22.5315
          21.7591
          21.0457
          21.0859
          22.4289
          23.9019
          25.6642
          28.8308
          28.8311
          28.8313
          28.8314
          28.8314
          28.8313
          28.8311
          26.6244
          25.7636
          25.281
          25.0666
          25.0713
          25.2955
          25.7891
          26.6633
          28.8948
          28.8951
          28.8951
          28.8951
          28.8951
          28.8949
          28.8945
          25.929
          24.3675
          23.1245
          22.0559
          21.0637
          21.1033
          22.7131
          24.4452
          26.4967
          28.8317
          28.8319
          28.832
          28.8321
          28.8321
          28.8321
          28.832
          27.641
          26.7608
          26.2733
          26.0508
          26.0565
          26.2907
          26.7911
          27.6869
          28.8957
          28.8958
          28.8959
          28.8959
          28.8958
          28.8957
          28.8955
          26.8075
          25.014
          23.565
          22.2828
          21.0775
          21.1142
          22.8856
          24.7437
          26.7351
          28.8337
          28.8338
          28.8339
          28.834
          28.834
          28.834
          28.834
          28.0628
          27.4346
          27.0188
          26.822
          26.8283
          27.038
          27.4675
          28.1107
          28.8977
          28.8977
          28.8977
          28.8977
          28.8977
          28.8976
          28.8975
          27.0848
          25.3902
          23.8522
          22.439
          21.0872
          21.1201
          22.9759
          24.8738
          26.8324
          28.8367
          28.8368
          28.8369
          28.837
          28.837
          28.837
          28.837
          28.3119
          27.8672
          27.5553
          27.3998
          27.4065
          27.5756
          27.9014
          28.3607
          28.9007
          28.9007
          28.9007
          28.9007
          28.9006
          28.9006
          28.9005
          27.2108
          25.5761
          24.0208
          22.5365
          21.0934
          21.123
          23.018
          24.9329
          26.8759
          28.8408
          28.8409
          28.841
          28.841
          28.8411
          28.8411
          28.8411
          28.4748
          28.1604
          27.9346
          27.8203
          27.8272
          27.9554
          28.1952
          28.524
          28.9048
          28.9048
          28.9048
          28.9048
          28.9047
          28.9046
          28.9045
          27.2742
          25.6727
          24.1131
          22.5931
          21.097
          21.1243
          23.0377
          24.9607
          26.8975
          28.8459
          28.846
          28.8461
          28.8462
          28.8462
          28.8462
          28.8462
          28.5874
          28.3645
          28.2034
          28.122
          28.129
          28.2244
          28.3996
          28.6368
          28.9099
          28.9099
          28.9099
          28.9099
          28.9099
          28.9098
          28.9097
          27.3089
          25.7247
          24.1636
          22.6245
          21.0991
          21.125
          23.0475
          24.975
          26.91
          28.8522
          28.8523
          28.8524
          28.8524
          28.8525
          28.8525
          28.8525
          28.6678
          28.5092
          28.3948
          28.3378
          28.3448
          28.4159
          28.5444
          28.7173
          28.9162
          28.9162
          28.9162
          28.9162
          28.9161
          28.916
          28.9159
          27.3298
          25.7541
          24.1918
          22.6421
          21.1002
          21.1254
          23.0531
          24.9837
          26.919
          28.8595
          28.8596
          28.8597
          28.8598
          28.8598
          28.8599
          28.8599
          28.7269
          28.6135
          28.5323
          28.4928
          28.4999
          28.5535
          28.6488
          28.7764
          28.9235
          28.9235
          28.9235
          28.9235
          28.9234
          28.9233
          28.9233
          27.344
          25.7719
          24.2084
          22.6523
          21.1009
          21.1256
          23.0569
          24.9902
          26.9269
          28.868
          28.8681
          28.8682
          28.8682
          28.8683
          28.8683
          28.8683
          28.7716
          28.6899
          28.6323
          28.6053
          28.6123
          28.6535
          28.7253
          28.8211
          28.932
          28.932
          28.9319
          28.9319
          28.9318
          28.9318
          28.9317
          27.3551
          25.7841
          24.219
          22.6587
          21.1013
          21.1258
          23.0601
          24.996
          26.9348
          28.8775
          28.8776
          28.8777
          28.8778
          28.8778
          28.8778
          28.8778
          28.8066
          28.7474
          28.7063
          28.6881
          28.6952
          28.7275
          28.7827
          28.8561
          28.9415
          28.9415
          28.9414
          28.9414
          28.9413
          28.9413
          28.9412
          27.3651
          25.7938
          24.2268
          22.6632
          21.1016
          21.126
          23.0632
          25.0018
          26.9431
          28.8881
          28.8882
          28.8883
          28.8884
          28.8884
          28.8885
          28.8885
          28.8353
          28.7919
          28.7626
          28.7506
          28.7577
          28.7838
          28.8272
          28.8848
          28.9521
          28.9521
          28.952
          28.952
          28.9519
          28.9518
          28.9517
          27.3749
          25.8024
          24.2333
          22.6669
          21.1018
          21.1262
          23.0665
          25.008
          26.952
          28.8997
          28.8999
          28.9
          28.9001
          28.9001
          28.9002
          28.9002
          28.8599
          28.8278
          28.8069
          28.7993
          28.8064
          28.828
          28.8631
          28.9093
          28.9638
          28.9637
          28.9637
          28.9636
          28.9636
          28.9635
          28.9634
          27.3853
          25.811
          24.2397
          22.6703
          21.102
          21.1264
          23.07
          25.0147
          26.9618
          28.9125
          28.9126
          28.9127
          28.9128
          28.9129
          28.913
          28.913
          28.882
          28.8581
          28.8432
          28.8389
          28.846
          28.8644
          28.8933
          28.9314
          28.9765
          28.9765
          28.9765
          28.9764
          28.9763
          28.9762
          28.9761
          27.3964
          25.8203
          24.2465
          22.6741
          21.1022
          21.1266
          23.0739
          25.0221
          26.9725
          28.9263
          28.9264
          28.9266
          28.9267
          28.9268
          28.9269
          28.9269
          28.9029
          28.885
          28.8746
          28.8727
          28.8798
          28.8958
          28.9203
          28.9522
          28.9904
          28.9904
          28.9903
          28.9902
          28.9901
          28.99
          28.9899
          27.4089
          25.8309
          24.2544
          22.6784
          21.1025
          21.1269
          23.0784
          25.0305
          26.9843
          28.9412
          28.9413
          28.9415
          28.9417
          28.9418
          28.942
          28.942
          28.9233
          28.9102
          28.9034
          28.9033
          28.9104
          28.9245
          28.9454
          28.9727
          29.0054
          29.0054
          29.0053
          29.0051
          29.005
          29.0048
          29.0047
          27.4232
          25.8439
          24.2645
          22.6841
          21.1029
          21.1273
          23.084
          25.0405
          26.9976
          28.957
          28.9572
          28.9574
          28.9577
          28.958
          28.9581
          28.9582
          28.9441
          28.935
          28.9311
          28.9326
          28.9396
          28.9522
          28.9702
          28.9934
          29.0216
          29.0215
          29.0214
          29.0211
          29.0209
          29.0207
          29.0205
          27.4404
          25.8608
          24.2784
          22.6923
          21.1034
          21.1278
          23.0915
          25.0534
          27.0133
          28.9739
          28.9741
          28.9744
          28.9748
          28.9752
          28.9755
          28.9756
          28.9658
          28.9604
          28.9593
          28.9622
          28.9693
          28.9804
          28.9956
          29.0151
          29.039
          29.0389
          29.0386
          29.0382
          29.0378
          29.0375
          29.0373
          27.4625
          25.8849
          24.2994
          22.7049
          21.1042
          21.1283
          23.1035
          25.0722
          27.0335
          28.9916
          28.9919
          28.9924
          28.9931
          28.9937
          28.9942
          28.9943
          28.9891
          28.9876
          28.9893
          28.9937
          29.0007
          29.0103
          29.0227
          29.0383
          29.0576
          29.0574
          29.057
          29.0564
          29.0558
          29.0553
          29.055
          27.4928
          25.9221
          24.3336
          22.726
          21.1054
          21.1309
          23.1243
          25.104
          27.0629
          29.0101
          29.0105
          29.0113
          29.0123
          29.0134
          29.0142
          29.0145
          29.0145
          29.0175
          29.0225
          29.0286
          29.0356
          29.0435
          29.0526
          29.0637
          29.0777
          29.0774
          29.0766
          29.0756
          29.0746
          29.0738
          29.0735
          27.5382
          25.9834
          24.3926
          22.7626
          21.1089
          21.1287
          23.1682
          25.1637
          27.1125
          29.0291
          29.0296
          29.0309
          29.0327
          29.0345
          29.0358
          29.0363
          29.0431
          29.0516
          29.0605
          29.0686
          29.0756
          29.0815
          29.0866
          29.0921
          29.0994
          29.0989
          29.0976
          29.0959
          29.0942
          29.0929
          29.0924
          27.6108
          26.0901
          24.4981
          22.8322
          21.1083
          21.1573
          23.2511
          25.2904
          27.2055
          29.0482
          29.0491
          29.0512
          29.0541
          29.0571
          29.0594
          29.0603
          29.0759
          29.0916
          29.1053
          29.1159
          29.1228
          29.1262
          29.1265
          29.1248
          29.1233
          29.1224
          29.1202
          29.1173
          29.1144
          29.1123
          29.1115
          27.732
          26.2796
          24.6973
          22.9545
          21.1395
          21.0714
          23.4847
          25.5495
          27.3974
          29.0669
          29.0682
          29.0715
          29.0764
          29.0816
          29.0857
          29.0872
          29.1149
          29.1398
          29.1594
          29.1728
          29.1797
          29.1802
          29.1745
          29.1636
          29.15
          29.1485
          29.1446
          29.1395
          29.1347
          29.1314
          29.1302
          27.9325
          26.6237
          25.0636
          23.2448
          21.0564
          21.55
          23.8279
          26.1854
          27.7634
          29.0842
          29.0861
          29.0913
          29.0991
          29.1083
          29.1158
          29.119
          29.1633
          29.1997
          29.2258
          29.2421
          29.249
          29.2465
          29.2341
          29.2116
          29.1814
          29.1784
          29.1712
          29.1623
          29.1546
          29.1494
          29.1475
          28.2414
          27.2089
          25.8466
          23.6626
          21.5424
          19.6671
          25.7317
          27.3897
          28.3504
          29.0987
          29.1015
          29.1095
          29.1214
          29.1363
          29.153
          29.1588
          29.2285
          29.2761
          29.3077
          29.3266
          29.3335
          29.3283
          29.3103
          29.276
          29.2205
          29.2151
          29.1993
          29.1848
          29.1729
          29.1648
          29.1619
          28.6631
          28.0793
          27.2346
          25.6658
          19.6529
          29.0706
          29.082
          29.0909
          29.0997
          29.1072
          29.1133
          29.125
          29.1415
          29.1633
          29.1908
          29.2349
          29.3217
          29.3722
          29.4077
          29.4288
          29.4358
          29.4285
          29.4065
          29.3685
          29.2931
          29.253
          29.227
          29.2055
          29.1887
          29.1766
          29.1698
          29.1611
          29.1515
          29.1423
          29.1331
          29.1217
          29.0751
          29.0831
          29.0915
          29.1002
          29.1098
          29.1214
          29.1367
          29.1577
          29.1856
          29.2235
          29.2745
          29.33
          29.3803
          29.4154
          29.4364
          29.4433
          29.4363
          29.4149
          29.3779
          29.3329
          29.2877
          29.2513
          29.2227
          29.2009
          29.1847
          29.1722
          29.1616
          29.1518
          29.1427
          29.1342
          29.1262
          29.0801
          29.0852
          29.0924
          29.1014
          29.1123
          29.1261
          29.1441
          29.168
          29.2001
          29.243
          29.2988
          29.3567
          29.4037
          29.4382
          29.459
          29.466
          29.4593
          29.439
          29.4067
          29.3646
          29.3148
          29.2684
          29.2341
          29.2087
          29.1895
          29.1746
          29.1625
          29.1523
          29.1434
          29.1363
          29.1312
          29.0838
          29.0861
          29.0928
          29.1019
          29.1132
          29.1277
          29.1466
          29.1716
          29.205
          29.2495
          29.3104
          29.3725
          29.4193
          29.4533
          29.474
          29.481
          29.4745
          29.4549
          29.4236
          29.3818
          29.327
          29.2746
          29.2381
          29.2113
          29.1911
          29.1755
          29.163
          29.1525
          29.1438
          29.1372
          29.1348
        </DataArray>
      </PointData>
      <CellData>
      </CellData>
      <Points>
        <DataArray type="Float32" NumberOfComponents="3" format="ascii">
          0.039 0.00195 0.0
          0.0377 0.00195 0.0
          0.0364 0.00195 0.0
          0.0351 0.00195 0.0
          0.0338 0.00195 0.0
          0.0325 0.00195 0.0
          0.0312 0.00195 0.0
          0.0299 0.00195 0.0
          0.0286 0.00195 0.0
          0.0273 0.00195 0.0
          0.026 0.00195 0.0
          0.0247 0.00195 0.0
          0.0234 0.00195 0.0
          0.0221 0.00195 0.0
          0.0208 0.00195 0.0
          0.0195 0.00195 0.0
          0.0182 0.00195 0.0
          0.0169 0.00195 0.0
          0.0156 0.00195 0.0
          0.0143 0.00195 0.0
          0.013 0.00195 0.0
          0.0117 0.00195 0.0
          0.0104 0.00195 0.0
          0.0091 0.00195 0.0
          0.0078 0.00195 0.0
          0.0065 0.00195 0.0
          0.0052 0.00195 0.0
          0.0039 0.00195 0.0
          0.0026 0.00195 0.0
          0.0013 0.00195 0.0
          0 0.00195 0.0
          0.039 0.00065 0.0
          0.0377 0.00065 0.0
          0.0364 0.00065 0.0
          0.0351 0.00065 0.0
          0.0338 0.00065 0.0
          0.0325 0.00065 0.0
          0.0312 0.00065 0.0
          0.0299 0.00065 0.0
          0.0286 0.00065 0.0
          0.0273 0.00065 0.0
          0.026 0.00065 0.0
          0.0247 0.00065 0.0
          0.0234 0.00065 0.0
          0.0221 0.00065 0.0
          0.0208 0.00065 0.0
          0.0195 0.00065 0.0
          0.0182 0.00065 0.0
          0.0169 0.00065 0.0
          0.0156 0.00065 0.0
          0.0143 0.00065 0.0
          0.013 0.00065 0.0
          0.0117 0.00065 0.0
          0.0104 0.00065 0.0
          0.0091 0.00065 0.0
          0.0078 0.00065 0.0
          0.0065 0.00065 0.0
          0.0052 0.00065 0.0
          0.0039 0.00065 0.0
          0.0026 0.00065 0.0
          0.0013 0.00065 0.0
          0 0.00065 0.0
          0.039 -0.00065 0.0
          0.0377 -0.00065 0.0
          0.0364 -0.00065 0.0
          0.0351 -0.00065 0.0
          0.0338 -0.00065 0.0
          0.0325 -0.00065 0.0
          0.0312 -0.00065 0.0
          0.0299 -0.00065 0.0
          0.0286 -0.00065 0.0
          0.0273 -0.00065 0.0
          0.026 -0.00065 0.0
          0.0247 -0.00065 0.0
          0.0234 -0.00065 0.0
          0.0221 -0.00065 0.0
          0.0208 -0.00065 0.0
          0.0195 -0.00065 0.0
          0.0182 -0.00065 0.0
          0.0169 -0.00065 0.0
          0.0156 -0.00065 0.0
          0.0143 -0.00065 0.0
          0.013 -0.00065 0.0
          0.0117 -0.00065 0.0
          0.0104 -0.00065 0.0
          0.0091 -0.00065 0.0
          0.0078 -0.00065 0.0
          0.0065 -0.00065 0.0
          0.0052 -0.00065 0.0
          0.0039 -0.00065 0.0
          0.0026 -0.00065 0.0
          0.0013 -0.00065 0.0
          0 -0.00065 0.0
          0.039 -0.00195 0.0
          0.0377 -0.00195 0.0
          0.0364 -0.00195 0.0
          0.0351 -0.00195 0.0
          0.0338 -0.00195 0.0
          0.0325 -0.00195 0.0
          0.0312 -0.00195 0.0
          0.0299 -0.00195 0.0
          0.0286 -0.00195 0.0
          0.0273 -0.00195 0.0
          0.026 -0.00195 0.0
          0.0247 -0.00195 0.0
          0.0234 -0.00195 0.0
          0.0221 -0.00195 0.0
          0.0208 -0.00195 0.0
          0.0195 -0.00195 0.0
          0.0182 -0.00195 0.0
          0.0169 -0.00195 0.0
          0.0156 -0.00195 0.0
          0.0143 -0.00195 0.0
          0.013 -0.00195 0.0
          0.0117 -0.00195 0.0
          0.0104 -0.00195 0.0
          0.0091 -0.00195 0.0
          0.0078 -0.00195 0.0
          0.0065 -0.00195 0.0
          0.0052 -0.00195 0.0
          0.0039 -0.00195 0.0
          0.0026 -0.00195 0.0
          0.0013 -0.00195 0.0
          0 -0.00195 0.0
          0.039 -0.00325 0.0
          0.0377 -0.00325 0.0
          0.0364 -0.00325 0.0
          0.0351 -0.00325 0.0
          0.0338 -0.00325 0.0
          0.0325 -0.00325 0.0
          0.0312 -0.00325 0.0
          0.0299 -0.00325 0.0
          0.0286 -0.00325 0.0
          0.0273 -0.00325 0.0
          0.026 -0.00325 0.0
          0.0247 -0.00325 0.0
          0.0234 -0.00325 0.0
          0.0221 -0.00325 0.0
          0.0208 -0.00325 0.0
          0.0195 -0.00325 0.0
          0.0182 -0.00325 0.0
          0.0169 -0.00325 0.0
          0.0156 -0.00325 0.0
          0.0143 -0.00325 0.0
          0.013 -0.00325 0.0
          0.0117 -0.00325 0.0
          0.0104 -0.00325 0.0
          0.0091 -0.00325 0.0
          0.0078 -0.00325 0.0
          0.0065 -0.00325 0.0
          0.0052 -0.00325 0.0
          0.0039 -0.00325 0.0
          0.0026 -0.00325 0.0
          0.0013 -0.00325 0.0
          0 -0.00325 0.0
          0.039 -0.00455 0.0
          0.0377 -0.00455 0.0
          0.0364 -0.00455 0.0
          0.0351 -0.00455 0.0
          0.0338 -0.00455 0.0
          0.0325 -0.00455 0.0
          0.0312 -0.00455 0.0
          0.0299 -0.00455 0.0
          0.0286 -0.00455 0.0
          0.0273 -0.00455 0.0
          0.026 -0.00455 0.0
          0.0247 -0.00455 0.0
          0.0234 -0.00455 0.0
          0.0221 -0.00455 0.0
          0.0208 -0.00455 0.0
          0.0195 -0.00455 0.0
          0.0182 -0.00455 0.0
          0.0169 -0.00455 0.0
          0.0156 -0.00455 0.0
          0.0143 -0.00455 0.0
          0.013 -0.00455 0.0
          0.0117 -0.00455 0.0
          0.0104 -0.00455 0.0
          0.0091 -0.00455 0.0
          0.0078 -0.00455 0.0
          0.0065 -0.00455 0.0
          0.0052 -0.00455 0.0
          0.0039 -0.00455 0.0
          0.0026 -0.00455 0.0
          0.0013 -0.00455 0.0
          0 -0.00455 0.0
          0.039 -0.00585 0.0
          0.0377 -0.00585 0.0
          0.0364 -0.00585 0.0
          0.0351 -0.00585 0.0
          0.0338 -0.00585 0.0
          0.0325 -0.00585 0.0
          0.0312 -0.00585 0.0
          0.0299 -0.00585 0.0
          0.0286 -0.00585 0.0
          0.0273 -0.00585 0.0
          0.026 -0.00585 0.0
          0.0247 -0.00585 0.0
          0.0234 -0.00585 0.0
          0.0221 -0.00585 0.0
          0.0208 -0.00585 0.0
          0.0195 -0.00585 0.0
          0.0182 -0.00585 0.0
          0.0169 -0.00585 0.0
          0.0156 -0.00585 0.0
          0.0143 -0.00585 0.0
          0.013 -0.00585 0.0
          0.0117 -0.00585 0.0
          0.0104 -0.00585 0.0
          0.0091 -0.00585 0.0
          0.0078 -0.00585 0.0
          0.0065 -0.00585 0.0
          0.0052 -0.00585 0.0
          0.0039 -0.00585 0.0
          0.0026 -0.00585 0.0
          0.0013 -0.00585 0.0
          0 -0.00585 0.0
          0.039 -0.00715 0.0
          0.0377 -0.00715 0.0
          0.0364 -0.00715 0.0
          0.0351 -0.00715 0.0
          0.0338 -0.00715 0.0
          0.0325 -0.00715 0.0
          0.0312 -0.00715 0.0
          0.0299 -0.00715 0.0
          0.0286 -0.00715 0.0
          0.0273 -0.00715 0.0
          0.026 -0.00715 0.0
          0.0247 -0.00715 0.0
          0.0234 -0.00715 0.0
          0.0221 -0.00715 0.0
          0.0208 -0.00715 0.0
          0.0195 -0.00715 0.0
          0.0182 -0.00715 0.0
          0.0169 -0.00715 0.0
          0.0156 -0.00715 0.0
          0.0143 -0.00715 0.0
          0.013 -0.00715 0.0
          0.0117 -0.00715 0.0
          0.0104 -0.00715 0.0
          0.0091 -0.00715 0.0
          0.0078 -0.00715 0.0
          0.0065 -0.00715 0.0
          0.0052 -0.00715 0.0
          0.0039 -0.00715 0.0
          0.0026 -0.00715 0.0
          0.0013 -0.00715 0.0
          0 -0.00715 0.0
          0.039 -0.00845 0.0
          0.0377 -0.00845 0.0
          0.0364 -0.00845 0.0
          0.0351 -0.00845 0.0
          0.0338 -0.00845 0.0
          0.0325 -0.00845 0.0
          0.0312 -0.00845 0.0
          0.0299 -0.00845 0.0
          0.0286 -0.00845 0.0
          0.0273 -0.00845 0.0
          0.026 -0.00845 0.0
          0.0247 -0.00845 0.0
          0.0234 -0.00845 0.0
          0.0221 -0.00845 0.0
          0.0208 -0.00845 0.0
          0.0195 -0.00845 0.0
          0.0182 -0.00845 0.0
          0.0169 -0.00845 0.0
          0.0156 -0.00845 0.0
          0.0143 -0.00845 0.0
          0.013 -0.00845 0.0
          0.0117 -0.00845 0.0
          0.0104 -0.00845 0.0
          0.0091 -0.00845 0.0
          0.0078 -0.00845 0.0
          0.0065 -0.00845 0.0
          0.0052 -0.00845 0.0
          0.0039 -0.00845 0.0
          0.0026 -0.00845 0.0
          0.0013 -0.00845 0.0
          0 -0.00845 0.0
          0.039 -0.00975 0.0
          0.0377 -0.00975 0.0
          0.0364 -0.00975 0.0
          0.0351 -0.00975 0.0
          0.0338 -0.00975 0.0
          0.0325 -0.00975 0.0
          0.0312 -0.00975 0.0
          0.0299 -0.00975 0.0
          0.0286 -0.00975 0.0
          0.0273 -0.00975 0.0
          0.026 -0.00975 0.0
          0.0247 -0.00975 0.0
          0.0234 -0.00975 0.0
          0.0221 -0.00975 0.0
          0.0208 -0.00975 0.0
          0.0195 -0.00975 0.0
          0.0182 -0.00975 0.0
          0.0169 -0.00975 0.0
          0.0156 -0.00975 0.0
          0.0143 -0.00975 0.0
          0.013 -0.00975 0.0
          0.0117 -0.00975 0.0
          0.0104 -0.00975 0.0
          0.0091 -0.00975 0.0
          0.0078 -0.00975 0.0
          0.0065 -0.00975 0.0
          0.0052 -0.00975 0.0
          0.0039 -0.00975 0.0
          0.0026 -0.00975 0.0
          0.0013 -0.00975 0.0
          0 -0.00975 0.0
          0.039 -0.01105 0.0
          0.0377 -0.01105 0.0
          0.0364 -0.01105 0.0
          0.0351 -0.01105 0.0
          0.0338 -0.01105 0.0
          0.0325 -0.01105 0.0
          0.0312 -0.01105 0.0
          0.0299 -0.01105 0.0
          0.0286 -0.01105 0.0
          0.0273 -0.01105 0.0
          0.026 -0.01105 0.0
          0.0247 -0.01105 0.0
          0.0234 -0.01105 0.0
          0.0221 -0.01105 0.0
          0.0208 -0.01105 0.0
          0.0195 -0.01105 0.0
          0.0182 -0.01105 0.0
          0.0169 -0.01105 0.0
          0.0156 -0.01105 0.0
          0.0143 -0.01105 0.0
          0.013 -0.01105 0.0
          0.0117 -0.01105 0.0
          0.0104 -0.01105 0.0
          0.0091 -0.01105 0.0
          0.0078 -0.01105 0.0
          0.0065 -0.01105 0.0
          0.0052 -0.01105 0.0
          0.0039 -0.01105 0.0
          0.0026 -0.01105 0.0
          0.0013 -0.01105 0.0
          0 -0.01105 0.0
          0.039 -0.01235 0.0
          0.0377 -0.01235 0.0
          0.0364 -0.01235 0.0
          0.0351 -0.01235 0.0
          0.0338 -0.01235 0.0
          0.0325 -0.01235 0.0
          0.0312 -0.01235 0.0
          0.0299 -0.01235 0.0
          0.0286 -0.01235 0.0
          0.0273 -0.01235 0.0
          0.026 -0.01235 0.0
          0.0247 -0.01235 0.0
          0.0234 -0.01235 0.0
          0.0221 -0.01235 0.0
          0.0208 -0.01235 0.0
          0.0195 -0.01235 0.0
          0.0182 -0.01235 0.0
          0.0169 -0.01235 0.0
          0.0156 -0.01235 0.0
          0.0143 -0.01235 0.0
          0.013 -0.01235 0.0
          0.0117 -0.01235 0.0
          0.0104 -0.01235 0.0
          0.0091 -0.01235 0.0
          0.0078 -0.01235 0.0
          0.0065 -0.01235 0.0
          0.0052 -0.01235 0.0
          0.0039 -0.01235 0.0
          0.0026 -0.01235 0.0
          0.0013 -0.01235 0.0
          0 -0.01235 0.0
          0.039 -0.01365 0.0
          0.0377 -0.01365 0.0
          0.0364 -0.01365 0.0
          0.0351 -0.01365 0.0
          0.0338 -0.01365 0.0
          0.0325 -0.01365 0.0
          0.0312 -0.01365 0.0
          0.0299 -0.01365 0.0
          0.0286 -0.01365 0.0
          0.0273 -0.01365 0.0
          0.026 -0.01365 0.0
          0.0247 -0.01365 0.0
          0.0234 -0.01365 0.0
          0.0221 -0.01365 0.0
          0.0208 -0.01365 0.0
          0.0195 -0.01365 0.0
          0.0182 -0.01365 0.0
          0.0169 -0.01365 0.0
          0.0156 -0.01365 0.0
          0.0143 -0.01365 0.0
          0.013 -0.01365 0.0
          0.0117 -0.01365 0.0
          0.0104 -0.01365 0.0
          0.0091 -0.01365 0.0
          0.0078 -0.01365 0.0
          0.0065 -0.01365 0.0
          0.0052 -0.01365 0.0
          0.0039 -0.01365 0.0
          0.0026 -0.01365 0.0
          0.0013 -0.01365 0.0
          0 -0.01365 0.0
          0.039 -0.01495 0.0
          0.0377 -0.01495 0.0
          0.0364 -0.01495 0.0
          0.0351 -0.01495 0.0
          0.0338 -0.01495 0.0
          0.0325 -0.01495 0.0
          0.0312 -0.01495 0.0
          0.0299 -0.01495 0.0
          0.0286 -0.01495 0.0
          0.0273 -0.01495 0.0
          0.026 -0.01495 0.0
          0.0247 -0.01495 0.0
          0.0234 -0.01495 0.0
          0.0221 -0.01495 0.0