<?xml version="1.0"?>
<VTKFile type="UnstructuredGrid" version="0.1" byte_order="LittleEndian">
  <UnstructuredGrid>
    <Piece NumberOfPoints="961" NumberOfCells="900">
      <PointData Scalars="Temperature">
        <DataArray type="Float32" Name="Temperature" format="ascii">
          21.0011
          21.0179
          21.0353
          21.0527
          21.0674
          21.0777
          21.0829
          21.0847
          21.0839
          21.0807
          21.0745
          21.0664
          21.0582
          21.0521
          21.0491
          21.0492
          21.0525
          21.0588
          21.0673
          21.0756
          21.0819
          21.0852
          21.0861
          21.0844
          21.0796
          21.0702
          21.0568
          21.0414
          21.0266
          21.0132
          21.0008
          21.0173
          21.2876
          21.5776
          21.8689
          22.123
          22.2884
          22.3695
          22.3907
          22.3822
          22.3317
          22.2308
          22.0866
          21.9461
          21.8427
          21.7945
          21.7963
          21.8482
          21.9557
          22.1003
          22.2482
          22.3516
          22.4035
          22.413
          22.3938
          22.3186
          22.1661
          21.9348
          21.6763
          21.429
          21.2127
          21.0128
          21.0322
          21.5362
          22.0846
          22.7402
          23.2744
          23.6196
          23.6987
          23.7193
          23.711
          23.6616
          23.4347
          23.1154
          22.7718
          22.5802
          22.4934
          22.4967
          22.5904
          22.7896
          23.1427
          23.4699
          23.7019
          23.7526
          23.7619
          23.7433
          23.6698
          23.3476
          22.857
          22.2674
          21.8
          21.3964
          21.0239
          21.0446
          21.7416
          22.5066
          23.4229
          25.0714
          25.0716
          25.0716
          25.0717
          25.0717
          25.0717
          25.0715
          23.9201
          23.4711
          23.22
          23.1095
          23.1141
          23.2341
          23.4959
          23.9581
          25.1337
          25.1338
          25.1339
          25.1339
          25.1338
          25.1338
          25.1336
          23.5781
          22.7602
          22.1099
          21.5515
          21.0332
          21.0536
          21.8893
          22.789
          23.856
          25.0722
          25.0722
          25.0723
          25.0724
          25.0724
          25.0723
          25.0723
          24.4487
          23.9889
          23.735
          23.6204
          23.626
          23.752
          24.0184
          24.4934
          25.1345
          25.1345
          25.1345
          25.1345
          25.1345
          25.1344
          25.1344
          24.0384
          23.0985
          22.3403
          21.6701
          21.0405
          21.0593
          21.9791
          22.9445
          23.9805
          25.074
          25.0741
          25.0741
          25.0742
          25.0742
          25.0742
          25.0742
          24.6684
          24.3392
          24.1224
          24.0212
          24.0274
          24.1411
          24.3714
          24.7151
          25.1363
          25.1364
          25.1364
          25.1364
          25.1363
          25.1363
          25.1362
          24.1841
          23.2957
          22.4907
          21.7519
          21.0456
          21.0624
          22.0263
          23.0128
          24.0321
          25.077
          25.0771
          25.0771
          25.0771
          25.0772
          25.0772
          25.0771
          24.7989
          24.5648
          24.4018
          24.3221
          24.3286
          24.4215
          24.5982
          24.8465
          25.1393
          25.1393
          25.1393
          25.1393
          25.1393
          25.1392
          25.1392
          24.2511
          23.3937
          22.5793
          21.8031
          21.0488
          21.0639
          22.0487
          23.0445
          24.0562
          25.0811
          25.0812
          25.0812
          25.0812
          25.0813
          25.0813
          25.0813
          24.8853
          24.7185
          24.6002
          24.5418
          24.5485
          24.6204
          24.7525
          24.9332
          25.1434
          25.1434
          25.1434
          25.1434
          25.1434
          25.1434
          25.1433
          24.2858
          23.4454
          22.6284
          21.833
          21.0507
          21.0646
          22.0596
          23.0602
          24.0693
          25.0863
          25.0864
          25.0865
          25.0865
          25.0865
          25.0865
          25.0865
          24.9461
          24.8267
          24.7418
          24.7004
          24.7073
          24.7623
          24.861
          24.9942
          25.1487
          25.1487
          25.1487
          25.1487
          25.1486
          25.1486
          25.1486
          24.3059
          23.474
          22.6557
          21.85
          21.0518
          21.065
          22.0655
          23.0692
          24.0781
          25.0927
          25.0928
          25.0928
          25.0929
          25.0929
          25.0929
          25.0929
          24.9908
          24.9047
          24.8439
          24.8152
          24.8221
          24.8645
          24.9391
          25.039
          25.1551
          25.1551
          25.1551
          25.155
          25.155
          25.155
          25.1549
          24.3193
          23.4912
          22.6717
          21.8598
          21.0525
          21.0653
          22.0694
          23.0756
          24.0856
          25.1002
          25.1003
          25.1003
          25.1004
          25.1004
          25.1004
          25.1004
          25.025
          24.9623
          24.9187
          24.8991
          24.906
          24.9393
          24.9967
          25.0733
          25.1626
          25.1626
          25.1626
          25.1626
          25.1625
          25.1625
          25.1624
          24.3297
          23.5028
          22.6818
          21.8659
          21.0528
          21.0655
          22.0724
          23.0811
          24.0929
          25.1089
          25.1089
          25.109
          25.109
          25.1091
          25.1091
          25.1091
          25.0524
          25.0061
          24.9747
          24.9615
          24.9684
          24.9954
          25.0406
          25.1008
          25.1712
          25.1712
          25.1712
          25.1712
          25.1712
          25.1711
          25.1711
          24.3389
          23.5117
          22.6891
          21.8701
          21.0531
          21.0657
          22.0754
          23.0866
          24.1006
          25.1187
          25.1187
          25.1188
          25.1188
          25.1188
          25.1189
          25.1189
          25.0755
          25.0408
          25.0179
          25.0093
          25.0162
          25.0386
          25.0753
          25.1238
          25.181
          25.181
          25.181
          25.181
          25.1809
          25.1809
          25.1808
          24.348
          23.5196
          22.6951
          21.8735
          21.0533
          21.0658
          22.0784
          23.0924
          24.109
          25.1296
          25.1296
          25.1297
          25.1297
          25.1298
          25.1298
          25.1298
          25.0958
          25.0694
          25.0527
          25.0474
          25.0543
          25.0734
          25.1039
          25.1441
          25.1919
          25.1919
          25.1919
          25.1919
          25.1918
          25.1918
          25.1917
          24.3574
          23.5274
          22.7008
          21.8765
          21.0535
          21.066
          22.0817
          23.0986
          24.1182
          25.1416
          25.1417
          25.1417
          25.1418
          25.1418
          25.1419
          25.1419
          25.1147
          25.0942
          25.0819
          25.079
          25.0859
          25.1026
          25.1287
          25.163
          25.204
          25.204
          25.204
          25.2039
          25.2039
          25.2038
          25.2038
          24.3676
          23.5355
          22.7065
          21.8796
          21.0537
          21.0663
          22.0852
          23.1054
          24.1282
          25.1547
          25.1548
          25.1549
          25.155
          25.155
          25.1551
          25.1551
          25.1329
          25.1169
          25.1079
          25.1067
          25.1136
          25.1286
          25.1514
          25.1812
          25.2172
          25.2172
          25.2172
          25.2171
          25.217
          25.217
          25.2169
          24.3786
          23.5443
          22.7127
          21.8829
          21.0539
          21.0665
          22.0891
          23.1129
          24.1391
          25.169
          25.1691
          25.1692
          25.1693
          25.1694
          25.1694
          25.1695
          25.1512
          25.1386
          25.1322
          25.1323
          25.1392
          25.1529
          25.1731
          25.1995
          25.2316
          25.2316
          25.2315
          25.2314
          25.2313
          25.2312
          25.2312
          24.3908
          23.5541
          22.7197
          21.8867
          21.0541
          21.0668
          22.0934
          23.1211
          24.1509
          25.1844
          25.1845
          25.1846
          25.1847
          25.1849
          25.185
          25.185
          25.1701
          25.1604
          25.1561
          25.1574
          25.1643
          25.1768
          25.1949
          25.2184
          25.2471
          25.2471
          25.247
          25.2468
          25.2467
          25.2466
          25.2465
          24.4044
          23.5655
          22.7281
          21.8912
          21.0544
          21.0671
          22.0984
          23.1304
          24.164
          25.2008
          25.2009
          25.2011
          25.2013
          25.2015
          25.2017
          25.2018
          25.1899
          25.1829
          25.1806
          25.1829
          25.1898
          25.2013
          25.2174
          25.2382
          25.2638
          25.2638
          25.2636
          25.2634
          25.2632
          25.263
          25.2629
          24.42
          23.5793
          22.7388
          21.8973
          21.0548
          21.0675
          22.1047
          23.1415
          24.1787
          25.2182
          25.2184
          25.2187
          25.219
          25.2194
          25.2196
          25.2197
          25.2112
          25.207
          25.2068
          25.2102
          25.217
          25.2274
          25.2415
          25.2594
          25.2818
          25.2817
          25.2815
          25.2811
          25.2808
          25.2805
          25.2804
          24.4385
          23.5973
          22.7535
          21.9058
          21.0554
          21.0679
          22.1134
          23.1561
          24.1962
          25.2366
          25.2368
          25.2373
          25.2379
          25.2385
          25.2389
          25.2391
          25.2343
          25.2334
          25.2355
          25.2402
          25.2471
          25.2562
          25.2678
          25.2825
          25.3011
          25.3009
          25.3005
          25.2999
          25.2994
          25.2989
          25.2987
          24.4619
          23.6226
          22.7754
          21.919
          21.0561
          21.0694
          22.1269
          23.1777
          24.2189
          25.2558
          25.2561
          25.2569
          25.2578
          25.2588
          25.2596
          25.2598
          25.2599
          25.2631
          25.2681
          25.2743
          25.2811
          25.2887
          25.2975
          25.3081
          25.3218
          25.3216
          25.3209
          25.3199
          25.3189
          25.3182
          25.3179
          24.4937
          23.6611
          22.8108
          21.9406
          21.0581
          21.0684
          22.1529
          23.2145
          24.2526
          25.2756
          25.2761
          25.2773
          25.2789
          25.2806
          25.2819
          25.2824
          25.2888
          25.2972
          25.3059
          25.314
          25.3208
          25.3265
          25.3315
          25.3369
          25.3443
          25.3438
          25.3426
          25.341
          25.3393
          25.3382
          25.3377
          24.5404
          23.7243
          22.8715
          21.9801
          21.0579
          21.0839
          22.1999
          23.2873
          24.3097
          25.2956
          25.2963
          25.2983
          25.3011
          25.304
          25.3062
          25.307
          25.322
          25.3374
          25.3509
          25.3613
          25.3681
          25.3714
          25.3716
          25.3701
          25.3689
          25.3681
          25.3659
          25.3631
          25.3604
          25.3584
          25.3577
          24.6135
          23.8323
          22.983
          22.0481
          21.0749
          21.0379
          22.3279
          23.4313
          24.42
          25.3152
          25.3164
          25.3196
          25.3242
          25.3292
          25.3332
          25.3347
          25.3616
          25.386
          25.4053
          25.4185
          25.4254
          25.4258
          25.4201
          25.4094
          25.3964
          25.395
          25.3911
          25.3862
          25.3817
          25.3785
          25.3774
          24.7294
          24.0241
          23.1848
          22.207
          21.0301
          21.2954
          22.5148
          23.778
          24.6237
          25.3337
          25.3354
          25.3403
          25.3478
          25.3566
          25.364
          25.367
          25.4106
          25.4465
          25.4723
          25.4884
          25.4952
          25.4927
          25.4805
          25.4582
          25.4285
          25.4256
          25.4185
          25.4099
          25.4025
          25.3976
          25.3959
          24.9039
          24.3463
          23.6122
          22.435
          21.2931
          20.283
          23.5413
          24.4307
          24.9462
          25.3497
          25.3523
          25.3596
          25.3709
          25.3853
          25.4017
          25.4074
          25.4765
          25.5237
          25.555
          25.5737
          25.5806
          25.5754
          25.5574
          25.5234
          25.4682
          25.4629
          25.4473
          25.4332
          25.4219
          25.4144
          25.4118
          25.1395
          24.8234
          24.3674
          23.5208
          20.2712
          25.3402
          25.3466
          25.3521
          25.3577
          25.3612
          25.3655
          25.376
          25.3917
          25.4129
          25.44
          25.4839
          25.5705
          25.6207
          25.6561
          25.6771
          25.6839
          25.6767
          25.6547
          25.6167
          25.5413
          25.5013
          25.4757
          25.4548
          25.4388
          25.4277
          25.4227
          25.4179
          25.4112
          25.405
          25.3993
          25.3929
          25.3427
          25.3472
          25.3525
          25.3583
          25.3652
          25.3747
          25.3886
          25.4084
          25.4356
          25.473
          25.5236
          25.5788
          25.6289
          25.6638
          25.6846
          25.6915
          25.6844
          25.6631
          25.6261
          25.5813
          25.5364
          25.5004
          25.4725
          25.4518
          25.437
          25.4265
          25.4185
          25.4115
          25.4053
          25.3999
          25.3953
          25.3454
          25.3484
          25.3532
          25.3596
          25.3682
          25.38
          25.3964
          25.4192
          25.4504
          25.4927
          25.548
          25.6055
          25.6523
          25.6866
          25.7072
          25.7142
          25.7074
          25.6872
          25.655
          25.6131
          25.5637
          25.5178
          25.4843
          25.46
          25.4424
          25.4294
          25.4197
          25.412
          25.4058
          25.4011
          25.398
          25.3474
          25.3489
          25.3535
          25.3602
          25.3693
          25.3818
          25.3991
          25.4229
          25.4554
          25.4992
          25.5596
          25.6213
          25.6679
          25.7017
          25.7223
          25.7292
          25.7227
          25.7032
          25.6719
          25.6304
          25.576
          25.5241
          25.4885
          25.4628
          25.4442
          25.4305
          25.4202
          25.4122
          25.406
          25.4016
          25.4
        </DataArray>
      </PointData>
      <CellData>
      </CellData>
      <Points>
        <DataArray type="Float32" NumberOfComponents="3" format="ascii">
          0.039 0.00195 0.0
          0.0377 0.00195 0.0
          0.0364 0.00195 0.0
          0.0351 0.00195 0.0
          0.0338 0.00195 0.0
          0.0325 0.00195 0.0
          0.0312 0.00195 0.0
          0.0299 0.00195 0.0
          0.0286 0.00195 0.0
          0.0273 0.00195 0.0
          0.026 0.00195 0.0
          0.0247 0.00195 0.0
          0.0234 0.00195 0.0
          0.0221 0.00195 0.0
          0.0208 0.00195 0.0
          0.0195 0.00195 0.0
          0.0182 0.00195 0.0
          0.0169 0.00195 0.0
          0.0156 0.00195 0.0
          0.0143 0.00195 0.0
          0.013 0.00195 0.0
          0.0117 0.00195 0.0
          0.0104 0.00195 0.0
          0.0091 0.00195 0.0
          0.0078 0.00195 0.0
          0.0065 0.00195 0.0
          0.0052 0.00195 0.0
          0.0039 0.00195 0.0
          0.0026 0.00195 0.0
          0.0013 0.00195 0.0
          0 0.00195 0.0
          0.039 0.00065 0.0
          0.0377 0.00065 0.0
          0.0364 0.00065 0.0
          0.0351 0.00065 0.0
          0.0338 0.00065 0.0
          0.0325 0.00065 0.0
          0.0312 0.00065 0.0
          0.0299 0.00065 0.0
          0.0286 0.00065 0.0
          0.0273 0.00065 0.0
          0.026 0.00065 0.0
          0.0247 0.00065 0.0
          0.0234 0.00065 0.0
          0.0221 0.00065 0.0
          0.0208 0.00065 0.0
          0.0195 0.00065 0.0
          0.0182 0.00065 0.0
          0.0169 0.00065 0.0
          0.0156 0.00065 0.0
          0.0143 0.00065 0.0
          0.013 0.00065 0.0
          0.0117 0.00065 0.0
          0.0104 0.00065 0.0
          0.0091 0.00065 0.0
          0.0078 0.00065 0.0
          0.0065 0.00065 0.0
          0.0052 0.00065 0.0
          0.0039 0.00065 0.0
          0.0026 0.00065 0.0
          0.0013 0.00065 0.0
          0 0.00065 0.0
          0.039 -0.00065 0.0
          0.0377 -0.00065 0.0
          0.0364 -0.00065 0.0
          0.0351 -0.00065 0.0
          0.0338 -0.00065 0.0
          0.0325 -0.00065 0.0
          0.0312 -0.00065 0.0
          0.0299 -0.00065 0.0
          0.0286 -0.00065 0.0
          0.0273 -0.00065 0.0
          0.026 -0.00065 0.0
          0.0247 -0.00065 0.0
          0.0234 -0.00065 0.0
          0.0221 -0.00065 0.0
          0.0208 -0.00065 0.0
          0.0195 -0.00065 0.0
          0.0182 -0.00065 0.0
          0.0169 -0.00065 0.0
          0.0156 -0.00065 0.0
          0.0143 -0.00065 0.0
          0.013 -0.00065 0.0
          0.0117 -0.00065 0.0
          0.0104 -0.00065 0.0
          0.0091 -0.00065 0.0
          0.0078 -0.00065 0.0
          0.0065 -0.00065 0.0
          0.0052 -0.00065 0.0
          0.0039 -0.00065 0.0
          0.0026 -0.00065 0.0
          0.0013 -0.00065 0.0
          0 -0.00065 0.0
          0.039 -0.00195 0.0
          0.0377 -0.00195 0.0
          0.0364 -0.00195 0.0
          0.0351 -0.00195 0.0
          0.0338 -0.00195 0.0
          0.0325 -0.00195 0.0
          0.0312 -0.00195 0.0
          0.0299 -0.00195 0.0
          0.0286 -0.00195 0.0
          0.0273 -0.00195 0.0
          0.026 -0.00195 0.0
          0.0247 -0.00195 0.0
          0.0234 -0.00195 0.0
          0.0221 -0.00195 0.0
          0.0208 -0.00195 0.0
          0.0195 -0.00195 0.0
          0.0182 -0.00195 0.0
          0.0169 -0.00195 0.0
          0.0156 -0.00195 0.0
          0.0143 -0.00195 0.0
          0.013 -0.00195 0.0
          0.0117 -0.00195 0.0
          0.0104 -0.00195 0.0
          0.0091 -0.00195 0.0
          0.0078 -0.00195 0.0
          0.0065 -0.00195 0.0
          0.0052 -0.00195 0.0
          0.0039 -0.00195 0.0
          0.0026 -0.00195 0.0
          0.0013 -0.00195 0.0
          0 -0.00195 0.0
          0.039 -0.00325 0.0
          0.0377 -0.00325 0.0
          0.0364 -0.00325 0.0
          0.0351 -0.00325 0.0
          0.0338 -0.00325 0.0
          0.0325 -0.00325 0.0
          0.0312 -0.00325 0.0
          0.0299 -0.00325 0.0
          0.0286 -0.00325 0.0
          0.0273 -0.00325 0.0
          0.026 -0.00325 0.0
          0.0247 -0.00325 0.0
          0.0234 -0.00325 0.0
          0.0221 -0.00325 0.0
          0.0208 -0.00325 0.0
          0.0195 -0.00325 0.0
          0.0182 -0.00325 0.0
          0.0169 -0.00325 0.0
          0.0156 -0.00325 0.0
          0.0143 -0.00325 0.0
          0.013 -0.00325 0.0
          0.0117 -0.00325 0.0
          0.0104 -0.00325 0.0
          0.0091 -0.00325 0.0
          0.0078 -0.00325 0.0
          0.0065 -0.00325 0.0
          0.0052 -0.00325 0.0
          0.0039 -0.00325 0.0
          0.0026 -0.00325 0.0
          0.0013 -0.00325 0.0
          0 -0.00325 0.0
          0.039 -0.00455 0.0
          0.0377 -0.00455 0.0
          0.0364 -0.00455 0.0
          0.0351 -0.00455 0.0
          0.0338 -0.00455 0.0
          0.0325 -0.00455 0.0
          0.0312 -0.00455 0.0
          0.0299 -0.00455 0.0
          0.0286 -0.00455 0.0
          0.0273 -0.00455 0.0
          0.026 -0.00455 0.0
          0.0247 -0.00455 0.0
          0.0234 -0.00455 0.0
          0.0221 -0.00455 0.0
          0.0208 -0.00455 0.0
          0.0195 -0.00455 0.0
          0.0182 -0.00455 0.0
          0.0169 -0.00455 0.0
          0.0156 -0.00455 0.0
          0.0143 -0.00455 0.0
          0.013 -0.00455 0.0
          0.0117 -0.00455 0.0
          0.0104 -0.00455 0.0
          0.0091 -0.00455 0.0
          0.0078 -0.00455 0.0
          0.0065 -0.00455 0.0
          0.0052 -0.00455 0.0
          0.0039 -0.00455 0.0
          0.0026 -0.00455 0.0
          0.0013 -0.00455 0.0
          0 -0.00455 0.0
          0.039 -0.00585 0.0
          0.0377 -0.00585 0.0
          0.0364 -0.00585 0.0
          0.0351 -0.00585 0.0
          0.0338 -0.00585 0.0
          0.0325 -0.00585 0.0
          0.0312 -0.00585 0.0
          0.0299 -0.00585 0.0
          0.0286 -0.00585 0.0
          0.0273 -0.00585 0.0
          0.026 -0.00585 0.0
          0.0247 -0.00585 0.0
          0.0234 -0.00585 0.0
          0.0221 -0.00585 0.0
          0.0208 -0.00585 0.0
          0.0195 -0.00585 0.0
          0.0182 -0.00585 0.0
          0.0169 -0.00585 0.0
          0.0156 -0.00585 0.0
          0.0143 -0.00585 0.0
          0.013 -0.00585 0.0
          0.0117 -0.00585 0.0
          0.0104 -0.00585 0.0
          0.0091 -0.00585 0.0
          0.0078 -0.00585 0.0
          0.0065 -0.00585 0.0
          0.0052 -0.00585 0.0
          0.0039 -0.00585 0.0
          0.0026 -0.00585 0.0
          0.0013 -0.00585 0.0
          0 -0.00585 0.0
          0.039 -0.00715 0.0
          0.0377 -0.00715 0.0
          0.0364 -0.00715 0.0
          0.0351 -0.00715 0.0
          0.0338 -0.00715 0.0
          0.0325 -0.00715 0.0
          0.0312 -0.00715 0.0
          0.0299 -0.00715 0.0
          0.0286 -0.00715 0.0
          0.0273 -0.00715 0.0
          0.026 -0.00715 0.0
          0.0247 -0.00715 0.0
          0.0234 -0.00715 0.0
          0.0221 -0.00715 0.0
          0.0208 -0.00715 0.0
          0.0195 -0.00715 0.0
          0.0182 -0.00715 0.0
          0.0169 -0.00715 0.0
          0.0156 -0.00715 0.0
          0.0143 -0.00715 0.0
          0.013 -0.00715 0.0
          0.0117 -0.00715 0.0
          0.0104 -0.00715 0.0
          0.0091 -0.00715 0.0
          0.0078 -0.00715 0.0
          0.0065 -0.00715 0.0
          0.0052 -0.00715 0.0
          0.0039 -0.00715 0.0
          0.0026 -0.00715 0.0
          0.0013 -0.00715 0.0
          0 -0.00715 0.0
          0.039 -0.00845 0.0
          0.0377 -0.00845 0.0
          0.0364 -0.00845 0.0
          0.0351 -0.00845 0.0
          0.0338 -0.00845 0.0
          0.0325 -0.00845 0.0
          0.0312 -0.00845 0.0
          0.0299 -0.00845 0.0
          0.0286 -0.00845 0.0
          0.0273 -0.00845 0.0
          0.026 -0.00845 0.0
          0.0247 -0.00845 0.0
          0.0234 -0.00845 0.0
          0.0221 -0.00845 0.0
          0.0208 -0.00845 0.0
          0.0195 -0.00845 0.0
          0.0182 -0.00845 0.0
          0.0169 -0.00845 0.0
          0.0156 -0.00845 0.0
          0.0143 -0.00845 0.0
          0.013 -0.00845 0.0
          0.0117 -0.00845 0.0
          0.0104 -0.00845 0.0
          0.0091 -0.00845 0.0
          0.0078 -0.00845 0.0
          0.0065 -0.00845 0.0
          0.0052 -0.00845 0.0
          0.0039 -0.00845 0.0
          0.0026 -0.00845 0.0
          0.0013 -0.00845 0.0
          0 -0.00845 0.0
          0.039 -0.00975 0.0
          0.0377 -0.00975 0.0
          0.0364 -0.00975 0.0
          0.0351 -0.00975 0.0
          0.0338 -0.00975 0.0
          0.0325 -0.00975 0.0
          0.0312 -0.00975 0.0
          0.0299 -0.00975 0.0
          0.0286 -0.00975 0.0
          0.0273 -0.00975 0.0
          0.026 -0.00975 0.0
          0.0247 -0.00975 0.0
          0.0234 -0.00975 0.0
          0.0221 -0.00975 0.0
          0.0208 -0.00975 0.0
          0.0195 -0.00975 0.0
          0.0182 -0.00975 0.0
          0.0169 -0.00975 0.0
          0.0156 -0.00975 0.0
          0.0143 -0.00975 0.0
          0.013 -0.00975 0.0
          0.0117 -0.00975 0.0
          0.0104 -0.00975 0.0
          0.0091 -0.00975 0.0
          0.0078 -0.00975 0.0
          0.0065 -0.00975 0.0
          0.0052 -0.00975 0.0
          0.0039 -0.00975 0.0
          0.0026 -0.00975 0.0
          0.0013 -0.00975 0.0
          0 -0.00975 0.0
          0.039 -0.01105 0.0
          0.0377 -0.01105 0.0
          0.0364 -0.01105 0.0
          0.0351 -0.01105 0.0
          0.0338 -0.01105 0.0
          0.0325 -0.01105 0.0
          0.0312 -0.01105 0.0
          0.0299 -0.01105 0.0
          0.0286 -0.01105 0.0
          0.0273 -0.01105 0.0
          0.026 -0.01105 0.0
          0.0247 -0.01105 0.0
          0.0234 -0.01105 0.0
          0.0221 -0.01105 0.0
          0.0208 -0.01105 0.0
          0.0195 -0.01105 0.0
          0.0182 -0.01105 0.0
          0.0169 -0.01105 0.0
          0.0156 -0.01105 0.0
          0.0143 -0.01105 0.0
          0.013 -0.01105 0.0
          0.0117 -0.01105 0.0
          0.0104 -0.01105 0.0
          0.0091 -0.01105 0.0
          0.0078 -0.01105 0.0
          0.0065 -0.01105 0.0
          0.0052 -0.01105 0.0
          0.0039 -0.01105 0.0
          0.0026 -0.01105 0.0
          0.0013 -0.01105 0.0
          0 -0.01105 0.0
          0.039 -0.01235 0.0
          0.0377 -0.01235 0.0
          0.0364 -0.01235 0.0
          0.0351 -0.01235 0.0
          0.0338 -0.01235 0.0
          0.0325 -0.01235 0.0
          0.0312 -0.01235 0.0
          0.0299 -0.01235 0.0
          0.0286 -0.01235 0.0
          0.0273 -0.01235 0.0
          0.026 -0.01235 0.0
          0.0247 -0.01235 0.0
          0.0234 -0.01235 0.0
          0.0221 -0.01235 0.0
          0.0208 -0.01235 0.0
          0.0195 -0.01235 0.0
          0.0182 -0.01235 0.0
          0.0169 -0.01235 0.0
          0.0156 -0.01235 0.0
          0.0143 -0.01235 0.0
          0.013 -0.01235 0.0
          0.0117 -0.01235 0.0
          0.0104 -0.01235 0.0
          0.0091 -0.01235 0.0
          0.0078 -0.01235 0.0
          0.0065 -0.01235 0.0
          0.0052 -0.01235 0.0
          0.0039 -0.01235 0.0
          0.0026 -0.01235 0.0
          0.0013 -0.01235 0.0
          0 -0.01235 0.0
          0.039 -0.01365 0.0
          0.0377 -0.01365 0.0
          0.0364 -0.01365 0.0
          0.0351 -0.01365 0.0
          0.0338 -0.01365 0.0
          0.0325 -0.01365 0.0
          0.0312 -0.01365 0.0
          0.0299 -0.01365 0.0
          0.0286 -0.01365 0.0
          0.0273 -0.01365 0.0
          0.026 -0.01365 0.0
          0.0247 -0.01365 0.0
          0.0234 -0.01365 0.0
          0.0221 -0.01365 0.0
          0.0208 -0.01365 0.0
          0.0195 -0.01365 0.0
          0.0182 -0.01365 0.0
          0.0169 -0.01365 0.0
          0.0156 -0.01365 0.0
          0.0143 -0.01365 0.0
          0.013 -0.01365 0.0
          0.0117 -0.01365 0.0
          0.0104 -0.01365 0.0
          0.0091 -0.01365 0.0
          0.0078 -0.01365 0.0
          0.0065 -0.01365 0.0
          0.0052 -0.01365 0.0
          0.0039 -0.01365 0.0
          0.0026 -0.01365 0.0
          0.0013 -0.01365 0.0
          0 -0.01365 0.0
          0.039 -0.01495 0.0
          0.0377 -0.01495 0.0
          0.0364 -0.01495 0.0
          0.0351 -0.01495 0.0
          0.0338 -0.01495 0.0
          0.0325 -0.01495 0.0
          0.0312 -0.01495 0.0
          0.0299 -0.01495 0.0
          0.0286 -0.01495 0.0
          0.0273 -0.01495 0.0
          0.026 -0.01495 0.0
          0.0247 -0.01495 0.0
          0.0234 -0.01495 0.0
          0.0221 -0.01495 0.0