<?xml version="1.0"?>
<VTKFile type="UnstructuredGrid" version="0.1" byte_order="LittleEndian">
  <UnstructuredGrid>
    <Piece NumberOfPoints="961" NumberOfCells="900">
      <PointData Scalars="Temperature">
        <DataArray type="Float32" Name="Temperature" format="ascii">
          21.0032
          21.0535
          21.1057
          21.1577
          21.2018
          21.2325
          21.248
          21.2534
          21.251
          21.2416
          21.2232
          21.199
          21.1745
          21.1564
          21.147
          21.1472
          21.1567
          21.1751
          21.1999
          21.2243
          21.2429
          21.2524
          21.255
          21.2502
          21.2359
          21.208
          21.1685
          21.1229
          21.079
          21.0391
          21.0024
          21.0519
          21.8615
          22.7294
          23.6007
          24.3602
          24.8545
          25.0967
          25.1603
          25.1349
          24.9846
          24.6842
          24.2549
          23.8361
          23.5269
          23.3812
          23.3831
          23.5326
          23.8462
          24.2694
          24.7026
          25.0057
          25.158
          25.1859
          25.1288
          24.9065
          24.4556
          23.7714
          23.006
          22.2733
          21.6316
          21.038
          21.0965
          22.6059
          24.2468
          26.206
          27.8016
          28.8319
          29.0685
          29.1301
          29.1054
          28.9584
          28.2835
          27.3332
          26.31
          25.7379
          25.4755
          25.4789
          25.7487
          26.3289
          27.3619
          28.3205
          29.0009
          29.1498
          29.1769
          29.1217
          28.9044
          27.9526
          26.5024
          24.7588
          23.3741
          22.1769
          21.0709
          21.1336
          23.2205
          25.509
          28.246
          33.161
          33.1616
          33.1619
          33.162
          33.1621
          33.162
          33.1615
          29.7393
          28.4043
          27.655
          27.321
          27.3258
          27.6699
          28.4304
          29.7793
          33.2269
          33.2273
          33.2274
          33.2274
          33.2273
          33.2271
          33.2265
          28.6367
          26.2189
          24.2932
          22.637
          21.0987
          21.1605
          23.662
          26.3528
          29.5385
          33.1623
          33.1625
          33.1627
          33.1628
          33.1629
          33.1628
          33.1627
          31.3181
          29.9536
          29.197
          28.8502
          28.856
          29.2148
          29.9847
          31.3651
          33.228
          33.2282
          33.2283
          33.2282
          33.2281
          33.2279
          33.2277
          29.997
          27.2202
          24.9757
          22.9885
          21.1202
          21.1775
          23.9298
          26.816
          29.908
          33.1643
          33.1645
          33.1646
          33.1648
          33.1648
          33.1648
          33.1647
          31.9727
          31
          30.355
          30.0481
          30.0546
          30.3747
          31.0338
          32.0218
          33.2301
          33.2301
          33.2302
          33.2301
          33.23
          33.2299
          33.2297
          30.4258
          27.8026
          25.4205
          23.2305
          21.1352
          21.1866
          24.0696
          27.0175
          30.058
          33.1673
          33.1675
          33.1676
          33.1677
          33.1678
          33.1678
          33.1677
          32.3584
          31.6711
          31.1878
          30.9449
          30.9518
          31.2085
          31.7062
          32.4084
          33.2331
          33.2331
          33.2331
          33.2331
          33.233
          33.2329
          33.2327
          30.6199
          28.0897
          25.681
          23.3813
          21.1447
          21.1911
          24.1345
          27.1081
          30.1239
          33.1713
          33.1715
          33.1717
          33.1718
          33.1718
          33.1718
          33.1718
          32.6095
          32.1249
          31.7755
          31.5966
          31.6037
          31.7967
          32.1606
          32.6599
          33.2371
          33.2372
          33.2372
          33.2371
          33.237
          33.2369
          33.2368
          30.7163
          28.2382
          25.8233
          23.4685
          21.1503
          21.1931
          24.1644
          27.1498
          30.1552
          33.1764
          33.1766
          33.1767
          33.1768
          33.1769
          33.1769
          33.1769
          32.7817
          32.4395
          32.1907
          32.063
          32.0702
          32.2122
          32.4755
          32.8323
          33.2422
          33.2422
          33.2422
          33.2422
          33.2421
          33.242
          33.2418
          30.7678
          28.3171
          25.9004
          23.5167
          21.1535
          21.194
          24.1787
          27.1703
          30.172
          33.1825
          33.1827
          33.1828
          33.183
          33.183
          33.1831
          33.1831
          32.9033
          32.6611
          32.485
          32.3953
          32.4025
          32.5066
          32.6972
          32.954
          33.2483
          33.2483
          33.2483
          33.2483
          33.2482
          33.2481
          33.2479
          30.7973
          28.3604
          25.9427
          23.5432
          21.1552
          21.1945
          24.1862
          27.1816
          30.1827
          33.1897
          33.1899
          33.19
          33.1901
          33.1902
          33.1902
          33.1902
          32.9909
          32.8191
          32.6947
          32.6322
          32.6395
          32.7164
          32.8553
          33.0416
          33.2555
          33.2555
          33.2554
          33.2554
          33.2553
          33.2552
          33.255
          30.8159
          28.3856
          25.9666
          23.5582
          21.1562
          21.1948
          24.1908
          27.1891
          30.1913
          33.1979
          33.198
          33.1982
          33.1983
          33.1984
          33.1984
          33.1984
          33.0555
          32.9332
          32.8453
          32.8022
          32.8095
          32.867
          32.9694
          33.1062
          33.2636
          33.2636
          33.2636
          33.2635
          33.2634
          33.2633
          33.2632
          30.8292
          28.4016
          25.9811
          23.567
          21.1567
          21.1951
          24.1944
          27.1953
          30.1993
          33.2071
          33.2073
          33.2074
          33.2075
          33.2076
          33.2076
          33.2077
          33.1044
          33.0169
          32.9548
          32.9255
          32.9327
          32.9765
          33.0531
          33.1551
          33.2728
          33.2728
          33.2728
          33.2727
          33.2726
          33.2725
          33.2724
          30.8402
          28.4131
          25.9909
          23.5728
          21.1571
          21.1953
          24.1976
          27.2013
          30.2075
          33.2173
          33.2175
          33.2176
          33.2178
          33.2179
          33.2179
          33.2179
          33.1427
          33.0797
          33.0359
          33.0162
          33.0234
          33.0575
          33.1159
          33.1933
          33.2831
          33.283
          33.283
          33.2829
          33.2828
          33.2827
          33.2826
          30.8506
          28.4228
          25.9986
          23.5772
          21.1574
          21.1955
          24.2008
          27.2074
          30.2163
          33.2286
          33.2288
          33.2289
          33.2291
          33.2292
          33.2292
          33.2292
          33.1738
          33.1283
          33.0974
          33.0846
          33.0918
          33.119
          33.1644
          33.2244
          33.2943
          33.2943
          33.2942
          33.2942
          33.294
          33.2939
          33.2938
          30.8611
          28.432
          26.0057
          23.5812
          21.1576
          21.1957
          24.2043
          27.214
          30.2258
          33.2409
          33.2411
          33.2412
          33.2414
          33.2415
          33.2416
          33.2416
          33.2004
          33.1673
          33.1457
          33.1378
          33.145
          33.1673
          33.2034
          33.2509
          33.3066
          33.3066
          33.3065
          33.3064
          33.3063
          33.3062
          33.306
          30.8724
          28.4419
          26.0132
          23.5854
          21.1579
          21.1959
          24.2083
          27.2214
          30.2362
          33.2542
          33.2544
          33.2546
          33.2547
          33.2549
          33.255
          33.255
          33.2242
          33.2002
          33.1853
          33.1811
          33.1883
          33.207
          33.2363
          33.2747
          33.32
          33.3199
          33.3198
          33.3197
          33.3196
          33.3194
          33.3192
          30.8852
          28.4534
          26.0221
          23.5904
          21.1582
          21.1962
          24.213
          27.2299
          30.2479
          33.2684
          33.2687
          33.2689
          33.2691
          33.2693
          33.2695
          33.2695
          33.2465
          33.2294
          33.2196
          33.218
          33.2253
          33.2412
          33.2655
          33.2969
          33.3344
          33.3343
          33.3342
          33.334
          33.3338
          33.3336
          33.3334
          30.9003
          28.4681
          26.0341
          23.5974
          21.1587
          21.1966
          24.2191
          27.2406
          30.2615
          33.2837
          33.2839
          33.2842
          33.2845
          33.2848
          33.285
          33.2851
          33.2684
          33.2568
          33.251
          33.2516
          33.2588
          33.2726
          33.2928
          33.3187
          33.3499
          33.3498
          33.3496
          33.3494
          33.3491
          33.3488
          33.3486
          30.9195
          28.4887
          26.0518
          23.608
          21.1593
          21.1973
          24.2282
          27.2555
          30.2783
          33.2998
          33.3001
          33.3005
          33.301
          33.3014
          33.3017
          33.3018
          33.2906
          33.2838
          33.2816
          33.284
          33.2912
          33.3031
          33.3197
          33.3409
          33.3665
          33.3664
          33.3662
          33.3657
          33.3653
          33.3649
          33.3647
          30.9455
          28.5198
          26.0801
          23.6253
          21.1605
          21.1979
          24.2439
          27.2792
          30.3016
          33.3168
          33.3172
          33.3178
          33.3185
          33.3192
          33.3197
          33.3198
          33.314
          33.3118
          33.313
          33.3172
          33.3244
          33.3345
          33.3477
          33.3642
          33.3844
          33.3843
          33.3838
          33.3831
          33.3825
          33.3819
          33.3816
          30.9839
          28.5706
          26.1283
          23.6555
          21.1621
          21.2017
          24.2732
          27.3227
          30.3388
          33.3345
          33.3349
          33.3358
          33.337
          33.3381
          33.3389
          33.3392
          33.3393
          33.3421
          33.3469
          33.353
          33.3602
          33.3684
          33.3779
          33.3894
          33.4037
          33.4034
          33.4026
          33.4015
          33.4004
          33.3996
          33.3992
          31.045
          28.6582
          26.2144
          23.7095
          21.1674
          21.1981
          24.3377
          27.4089
          30.4068
          33.3526
          33.3532
          33.3546
          33.3565
          33.3584
          33.3598
          33.3603
          33.3674
          33.3762
          33.3852
          33.3934
          33.4005
          33.4065
          33.4119
          33.4174
          33.4246
          33.4241
          33.4228
          33.421
          33.4192
          33.4178
          33.4172
          31.1473
          28.815
          26.3715
          23.8137
          21.1664
          21.2418
          24.462
          27.5976
          30.541
          33.3707
          33.3716
          33.3739
          33.377
          33.3802
          33.3826
          33.3835
          33.3997
          33.4158
          33.4298
          33.4406
          33.4477
          33.4511
          33.4514
          33.4495
          33.4476
          33.4468
          33.4444
          33.4414
          33.4384
          33.4362
          33.4353
          31.324
          29.0983
          26.6719
          23.9985
          21.2139
          21.11
          24.8172
          27.9893
          30.827
          33.3883
          33.3896
          33.3932
          33.3983
          33.4038
          33.408
          33.4096
          33.4381
          33.4635
          33.4835
          33.4971
          33.5041
          33.5046
          33.4988
          33.4876
          33.4736
          33.472
          33.4679
          33.4626
          33.4576
          33.4541
          33.4528
          31.6218
          29.618
          27.2277
          24.4401
          21.0868
          21.8432
          25.3403
          28.9584
          31.38
          33.4042
          33.4063
          33.4119
          33.4201
          33.4296
          33.4374
          33.4406
          33.4858
          33.5228
          33.5492
          33.5657
          33.5727
          33.5702
          33.5578
          33.5349
          33.5042
          33.5011
          33.4936
          33.4844
          33.4763
          33.4707
          33.4687
          32.0856
          30.5061
          28.4202
          25.0766
          21.8297
          18.9577
          28.2547
          30.798
          32.2715
          33.417
          33.4201
          33.4289
          33.4414
          33.4568
          33.4739
          33.4798
          33.5502
          33.5983
          33.6301
          33.6492
          33.6562
          33.651
          33.633
          33.5985
          33.5426
          33.537
          33.5209
          33.5059
          33.4934
          33.4845
          33.4814
          32.7217
          31.8294
          30.5371
          28.1366
          18.9407
          33.3675
          33.3846
          33.3975
          33.4099
          33.422
          33.4303
          33.4432
          33.4607
          33.4832
          33.5112
          33.5556
          33.6425
          33.6933
          33.729
          33.7502
          33.7572
          33.75
          33.728
          33.6899
          33.6145
          33.5743
          33.5479
          33.5258
          33.508
          33.4947
          33.4858
          33.4726
          33.4596
          33.4469
          33.4338
          33.4167
          33.3743
          33.3862
          33.3982
          33.4104
          33.423
          33.437
          33.454
          33.4762
          33.505
          33.5435
          33.595
          33.6508
          33.7014
          33.7367
          33.7578
          33.7648
          33.7578
          33.7364
          33.6992
          33.6541
          33.6086
          33.5716
          33.5422
          33.5193
          33.5015
          33.4865
          33.473
          33.4599
          33.4475
          33.4355
          33.4235
          33.3819
          33.3894
          33.3994
          33.4113
          33.425
          33.441
          33.4608
          33.4861
          33.5192
          33.5629
          33.6192
          33.6775
          33.7248
          33.7594
          33.7804
          33.7875
          33.7808
          33.7605
          33.728
          33.6856
          33.6355
          33.5884
          33.5532
          33.5264
          33.5055
          33.4884
          33.4736
          33.4604
          33.4486
          33.4386
          33.4311
          33.3875
          33.3907
          33.4
          33.4117
          33.4257
          33.4424
          33.4631
          33.4896
          33.524
          33.5693
          33.6307
          33.6932
          33.7403
          33.7746
          33.7954
          33.8025
          33.796
          33.7764
          33.7449
          33.7028
          33.6476
          33.5945
          33.557
          33.5289
          33.507
          33.4891
          33.474
          33.4607
          33.4491
          33.4399
          33.4367
        </DataArray>
      </PointData>
      <CellData>
      </CellData>
      <Points>
        <DataArray type="Float32" NumberOfComponents="3" format="ascii">
          0.039 0.00195 0.0
          0.0377 0.00195 0.0
          0.0364 0.00195 0.0
          0.0351 0.00195 0.0
          0.0338 0.00195 0.0
          0.0325 0.00195 0.0
          0.0312 0.00195 0.0
          0.0299 0.00195 0.0
          0.0286 0.00195 0.0
          0.0273 0.00195 0.0
          0.026 0.00195 0.0
          0.0247 0.00195 0.0
          0.0234 0.00195 0.0
          0.0221 0.00195 0.0
          0.0208 0.00195 0.0
          0.0195 0.00195 0.0
          0.0182 0.00195 0.0
          0.0169 0.00195 0.0
          0.0156 0.00195 0.0
          0.0143 0.00195 0.0
          0.013 0.00195 0.0
          0.0117 0.00195 0.0
          0.0104 0.00195 0.0
          0.0091 0.00195 0.0
          0.0078 0.00195 0.0
          0.0065 0.00195 0.0
          0.0052 0.00195 0.0
          0.0039 0.00195 0.0
          0.0026 0.00195 0.0
          0.0013 0.00195 0.0
          0 0.00195 0.0
          0.039 0.00065 0.0
          0.0377 0.00065 0.0
          0.0364 0.00065 0.0
          0.0351 0.00065 0.0
          0.0338 0.00065 0.0
          0.0325 0.00065 0.0
          0.0312 0.00065 0.0
          0.0299 0.00065 0.0
          0.0286 0.00065 0.0
          0.0273 0.00065 0.0
          0.026 0.00065 0.0
          0.0247 0.00065 0.0
          0.0234 0.00065 0.0
          0.0221 0.00065 0.0
          0.0208 0.00065 0.0
          0.0195 0.00065 0.0
          0.0182 0.00065 0.0
          0.0169 0.00065 0.0
          0.0156 0.00065 0.0
          0.0143 0.00065 0.0
          0.013 0.00065 0.0
          0.0117 0.00065 0.0
          0.0104 0.00065 0.0
          0.0091 0.00065 0.0
          0.0078 0.00065 0.0
          0.0065 0.00065 0.0
          0.0052 0.00065 0.0
          0.0039 0.00065 0.0
          0.0026 0.00065 0.0
          0.0013 0.00065 0.0
          0 0.00065 0.0
          0.039 -0.00065 0.0
          0.0377 -0.00065 0.0
          0.0364 -0.00065 0.0
          0.0351 -0.00065 0.0
          0.0338 -0.00065 0.0
          0.0325 -0.00065 0.0
          0.0312 -0.00065 0.0
          0.0299 -0.00065 0.0
          0.0286 -0.00065 0.0
          0.0273 -0.00065 0.0
          0.026 -0.00065 0.0
          0.0247 -0.00065 0.0
          0.0234 -0.00065 0.0
          0.0221 -0.00065 0.0
          0.0208 -0.00065 0.0
          0.0195 -0.00065 0.0
          0.0182 -0.00065 0.0
          0.0169 -0.00065 0.0
          0.0156 -0.00065 0.0
          0.0143 -0.00065 0.0
          0.013 -0.00065 0.0
          0.0117 -0.00065 0.0
          0.0104 -0.00065 0.0
          0.0091 -0.00065 0.0
          0.0078 -0.00065 0.0
          0.0065 -0.00065 0.0
          0.0052 -0.00065 0.0
          0.0039 -0.00065 0.0
          0.0026 -0.00065 0.0
          0.0013 -0.00065 0.0
          0 -0.00065 0.0
          0.039 -0.00195 0.0
          0.0377 -0.00195 0.0
          0.0364 -0.00195 0.0
          0.0351 -0.00195 0.0
          0.0338 -0.00195 0.0
          0.0325 -0.00195 0.0
          0.0312 -0.00195 0.0
          0.0299 -0.00195 0.0
          0.0286 -0.00195 0.0
          0.0273 -0.00195 0.0
          0.026 -0.00195 0.0
          0.0247 -0.00195 0.0
          0.0234 -0.00195 0.0
          0.0221 -0.00195 0.0
          0.0208 -0.00195 0.0
          0.0195 -0.00195 0.0
          0.0182 -0.00195 0.0
          0.0169 -0.00195 0.0
          0.0156 -0.00195 0.0
          0.0143 -0.00195 0.0
          0.013 -0.00195 0.0
          0.0117 -0.00195 0.0
          0.0104 -0.00195 0.0
          0.0091 -0.00195 0.0
          0.0078 -0.00195 0.0
          0.0065 -0.00195 0.0
          0.0052 -0.00195 0.0
          0.0039 -0.00195 0.0
          0.0026 -0.00195 0.0
          0.0013 -0.00195 0.0
          0 -0.00195 0.0
          0.039 -0.00325 0.0
          0.0377 -0.00325 0.0
          0.0364 -0.00325 0.0
          0.0351 -0.00325 0.0
          0.0338 -0.00325 0.0
          0.0325 -0.00325 0.0
          0.0312 -0.00325 0.0
          0.0299 -0.00325 0.0
          0.0286 -0.00325 0.0
          0.0273 -0.00325 0.0
          0.026 -0.00325 0.0
          0.0247 -0.00325 0.0
          0.0234 -0.00325 0.0
          0.0221 -0.00325 0.0
          0.0208 -0.00325 0.0
          0.0195 -0.00325 0.0
          0.0182 -0.00325 0.0
          0.0169 -0.00325 0.0
          0.0156 -0.00325 0.0
          0.0143 -0.00325 0.0
          0.013 -0.00325 0.0
          0.0117 -0.00325 0.0
          0.0104 -0.00325 0.0
          0.0091 -0.00325 0.0
          0.0078 -0.00325 0.0
          0.0065 -0.00325 0.0
          0.0052 -0.00325 0.0
          0.0039 -0.00325 0.0
          0.0026 -0.00325 0.0
          0.0013 -0.00325 0.0
          0 -0.00325 0.0
          0.039 -0.00455 0.0
          0.0377 -0.00455 0.0
          0.0364 -0.00455 0.0
          0.0351 -0.00455 0.0
          0.0338 -0.00455 0.0
          0.0325 -0.00455 0.0
          0.0312 -0.00455 0.0
          0.0299 -0.00455 0.0
          0.0286 -0.00455 0.0
          0.0273 -0.00455 0.0
          0.026 -0.00455 0.0
          0.0247 -0.00455 0.0
          0.0234 -0.00455 0.0
          0.0221 -0.00455 0.0
          0.0208 -0.00455 0.0
          0.0195 -0.00455 0.0
          0.0182 -0.00455 0.0
          0.0169 -0.00455 0.0
          0.0156 -0.00455 0.0
          0.0143 -0.00455 0.0
          0.013 -0.00455 0.0
          0.0117 -0.00455 0.0
          0.0104 -0.00455 0.0
          0.0091 -0.00455 0.0
          0.0078 -0.00455 0.0
          0.0065 -0.00455 0.0
          0.0052 -0.00455 0.0
          0.0039 -0.00455 0.0
          0.0026 -0.00455 0.0
          0.0013 -0.00455 0.0
          0 -0.00455 0.0
          0.039 -0.00585 0.0
          0.0377 -0.00585 0.0
          0.0364 -0.00585 0.0
          0.0351 -0.00585 0.0
          0.0338 -0.00585 0.0
          0.0325 -0.00585 0.0
          0.0312 -0.00585 0.0
          0.0299 -0.00585 0.0
          0.0286 -0.00585 0.0
          0.0273 -0.00585 0.0
          0.026 -0.00585 0.0
          0.0247 -0.00585 0.0
          0.0234 -0.00585 0.0
          0.0221 -0.00585 0.0
          0.0208 -0.00585 0.0
          0.0195 -0.00585 0.0
          0.0182 -0.00585 0.0
          0.0169 -0.00585 0.0
          0.0156 -0.00585 0.0
          0.0143 -0.00585 0.0
          0.013 -0.00585 0.0
          0.0117 -0.00585 0.0
          0.0104 -0.00585 0.0
          0.0091 -0.00585 0.0
          0.0078 -0.00585 0.0
          0.0065 -0.00585 0.0
          0.0052 -0.00585 0.0
          0.0039 -0.00585 0.0
          0.0026 -0.00585 0.0
          0.0013 -0.00585 0.0
          0 -0.00585 0.0
          0.039 -0.00715 0.0
          0.0377 -0.00715 0.0
          0.0364 -0.00715 0.0
          0.0351 -0.00715 0.0
          0.0338 -0.00715 0.0
          0.0325 -0.00715 0.0
          0.0312 -0.00715 0.0
          0.0299 -0.00715 0.0
          0.0286 -0.00715 0.0
          0.0273 -0.00715 0.0
          0.026 -0.00715 0.0
          0.0247 -0.00715 0.0
          0.0234 -0.00715 0.0
          0.0221 -0.00715 0.0
          0.0208 -0.00715 0.0
          0.0195 -0.00715 0.0
          0.0182 -0.00715 0.0
          0.0169 -0.00715 0.0
          0.0156 -0.00715 0.0
          0.0143 -0.00715 0.0
          0.013 -0.00715 0.0
          0.0117 -0.00715 0.0
          0.0104 -0.00715 0.0
          0.0091 -0.00715 0.0
          0.0078 -0.00715 0.0
          0.0065 -0.00715 0.0
          0.0052 -0.00715 0.0
          0.0039 -0.00715 0.0
          0.0026 -0.00715 0.0
          0.0013 -0.00715 0.0
          0 -0.00715 0.0
          0.039 -0.00845 0.0
          0.0377 -0.00845 0.0
          0.0364 -0.00845 0.0
          0.0351 -0.00845 0.0
          0.0338 -0.00845 0.0
          0.0325 -0.00845 0.0
          0.0312 -0.00845 0.0
          0.0299 -0.00845 0.0
          0.0286 -0.00845 0.0
          0.0273 -0.00845 0.0
          0.026 -0.00845 0.0
          0.0247 -0.00845 0.0
          0.0234 -0.00845 0.0
          0.0221 -0.00845 0.0
          0.0208 -0.00845 0.0
          0.0195 -0.00845 0.0
          0.0182 -0.00845 0.0
          0.0169 -0.00845 0.0
          0.0156 -0.00845 0.0
          0.0143 -0.00845 0.0
          0.013 -0.00845 0.0
          0.0117 -0.00845 0.0
          0.0104 -0.00845 0.0
          0.0091 -0.00845 0.0
          0.0078 -0.00845 0.0
          0.0065 -0.00845 0.0
          0.0052 -0.00845 0.0
          0.0039 -0.00845 0.0
          0.0026 -0.00845 0.0
          0.0013 -0.00845 0.0
          0 -0.00845 0.0
          0.039 -0.00975 0.0
          0.0377 -0.00975 0.0
          0.0364 -0.00975 0.0
          0.0351 -0.00975 0.0
          0.0338 -0.00975 0.0
          0.0325 -0.00975 0.0
          0.0312 -0.00975 0.0
          0.0299 -0.00975 0.0
          0.0286 -0.00975 0.0
          0.0273 -0.00975 0.0
          0.026 -0.00975 0.0
          0.0247 -0.00975 0.0
          0.0234 -0.00975 0.0
          0.0221 -0.00975 0.0
          0.0208 -0.00975 0.0
          0.0195 -0.00975 0.0
          0.0182 -0.00975 0.0
          0.0169 -0.00975 0.0
          0.0156 -0.00975 0.0
          0.0143 -0.00975 0.0
          0.013 -0.00975 0.0
          0.0117 -0.00975 0.0
          0.0104 -0.00975 0.0
          0.0091 -0.00975 0.0
          0.0078 -0.00975 0.0
          0.0065 -0.00975 0.0
          0.0052 -0.00975 0.0
          0.0039 -0.00975 0.0
          0.0026 -0.00975 0.0
          0.0013 -0.00975 0.0
          0 -0.00975 0.0
          0.039 -0.01105 0.0
          0.0377 -0.01105 0.0
          0.0364 -0.01105 0.0
          0.0351 -0.01105 0.0
          0.0338 -0.01105 0.0
          0.0325 -0.01105 0.0
          0.0312 -0.01105 0.0
          0.0299 -0.01105 0.0
          0.0286 -0.01105 0.0
          0.0273 -0.01105 0.0
          0.026 -0.01105 0.0
          0.0247 -0.01105 0.0
          0.0234 -0.01105 0.0
          0.0221 -0.01105 0.0
          0.0208 -0.01105 0.0
          0.0195 -0.01105 0.0
          0.0182 -0.01105 0.0
          0.0169 -0.01105 0.0
          0.0156 -0.01105 0.0
          0.0143 -0.01105 0.0
          0.013 -0.01105 0.0
          0.0117 -0.01105 0.0
          0.0104 -0.01105 0.0
          0.0091 -0.01105 0.0
          0.0078 -0.01105 0.0
          0.0065 -0.01105 0.0
          0.0052 -0.01105 0.0
          0.0039 -0.01105 0.0
          0.0026 -0.01105 0.0
          0.0013 -0.01105 0.0
          0 -0.01105 0.0
          0.039 -0.01235 0.0
          0.0377 -0.01235 0.0
          0.0364 -0.01235 0.0
          0.0351 -0.01235 0.0
          0.0338 -0.01235 0.0
          0.0325 -0.01235 0.0
          0.0312 -0.01235 0.0
          0.0299 -0.01235 0.0
          0.0286 -0.01235 0.0
          0.0273 -0.01235 0.0
          0.026 -0.01235 0.0
          0.0247 -0.01235 0.0
          0.0234 -0.01235 0.0
          0.0221 -0.01235 0.0
          0.0208 -0.01235 0.0
          0.0195 -0.01235 0.0
          0.0182 -0.01235 0.0
          0.0169 -0.01235 0.0
          0.0156 -0.01235 0.0
          0.0143 -0.01235 0.0
          0.013 -0.01235 0.0
          0.0117 -0.01235 0.0
          0.0104 -0.01235 0.0
          0.0091 -0.01235 0.0
          0.0078 -0.01235 0.0
          0.0065 -0.01235 0.0
          0.0052 -0.01235 0.0
          0.0039 -0.01235 0.0
          0.0026 -0.01235 0.0
          0.0013 -0.01235 0.0
          0 -0.01235 0.0
          0.039 -0.01365 0.0
          0.0377 -0.01365 0.0
          0.0364 -0.01365 0.0
          0.0351 -0.01365 0.0
          0.0338 -0.01365 0.0
          0.0325 -0.01365 0.0
          0.0312 -0.01365 0.0
          0.0299 -0.01365 0.0
          0.0286 -0.01365 0.0
          0.0273 -0.01365 0.0
          0.026 -0.01365 0.0
          0.0247 -0.01365 0.0
          0.0234 -0.01365 0.0
          0.0221 -0.01365 0.0
          0.0208 -0.01365 0.0
          0.0195 -0.01365 0.0
          0.0182 -0.01365 0.0
          0.0169 -0.01365 0.0
          0.0156 -0.01365 0.0
          0.0143 -0.01365 0.0
          0.013 -0.01365 0.0
          0.0117 -0.01365 0.0
          0.0104 -0.01365 0.0
          0.0091 -0.01365 0.0
          0.0078 -0.01365 0.0
          0.0065 -0.01365 0.0
          0.0052 -0.01365 0.0
          0.0039 -0.01365 0.0
          0.0026 -0.01365 0.0
          0.0013 -0.01365 0.0
          0 -0.01365 0.0
          0.039 -0.01495 0.0
          0.0377 -0.01495 0.0
          0.0364 -0.01495 0.0
          0.0351 -0.01495 0.0
          0.0338 -0.01495 0.0
          0.0325 -0.01495 0.0
          0.0312 -0.01495 0.0
          0.0299 -0.01495 0.0
          0.0286 -0.01495 0.0
          0.0273 -0.01495 0.0
          0.026 -0.01495 0.0
          0.0247 -0.01495 0.0
          0.0234 -0.01495 0.0
          0.0221 -0.01495 0.0
          0.0208 -0.01495 0.0