<?xml version="1.0"?>
<VTKFile type="UnstructuredGrid" version="0.1" byte_order="LittleEndian">
  <UnstructuredGrid>
    <Piece NumberOfPoints="961" NumberOfCells="900">
      <PointData Scalars="Temperature">
        <DataArray type="Float32" Name="Temperature" format="ascii">
          21.0009
          21.0145
          21.0285
          21.0426
          21.0545
          21.0629
          21.0671
          21.0685
          21.0679
          21.0653
          21.0603
          21.0537
          21.0471
          21.0421
          21.0397
          21.0398
          21.0425
          21.0476
          21.0546
          21.0613
          21.0665
          21.0691
          21.0699
          21.0685
          21.0646
          21.057
          21.0461
          21.0336
          21.0216
          21.0107
          21.0006
          21.014
          21.2326
          21.4672
          21.7029
          21.9086
          22.0424
          22.1081
          22.1253
          22.1183
          22.0774
          21.9956
          21.8788
          21.765
          21.6812
          21.6424
          21.6441
          21.6866
          21.7744
          21.8924
          22.0128
          22.0971
          22.1394
          22.1472
          22.1315
          22.0705
          21.9466
          21.7587
          21.5488
          21.348
          21.1725
          21.0104
          21.0261
          21.4337
          21.8773
          22.408
          22.8405
          23.12
          23.184
          23.2007
          23.1939
          23.1539
          22.97
          22.7111
          22.4326
          22.2775
          22.2075
          22.2108
          22.2876
          22.4503
          22.7382
          23.0048
          23.1937
          23.2351
          23.2427
          23.2276
          23.1679
          22.9061
          22.5074
          22.0285
          21.649
          21.3216
          21.0194
          21.0361
          21.5998
          22.2188
          22.9606
          24.2959
          24.2961
          24.2962
          24.2962
          24.2962
          24.2962
          24.2961
          23.3623
          22.9982
          22.7948
          22.7058
          22.7103
          22.8088
          23.0228
          23.3999
          24.3576
          24.3578
          24.3578
          24.3578
          24.3578
          24.3577
          24.3575
          23.0931
          22.4286
          21.9005
          21.4474
          21.027
          21.0434
          21.7194
          22.4474
          23.3113
          24.2967
          24.2968
          24.2968
          24.2969
          24.2969
          24.2968
          24.2968
          23.7903
          23.4171
          23.2114
          23.1191
          23.1245
          23.2282
          23.4464
          23.8346
          24.3584
          24.3584
          24.3585
          24.3584
          24.3584
          24.3584
          24.3583
          23.467
          22.7033
          22.0876
          21.5436
          21.0328
          21.048
          21.7921
          22.5734
          23.4123
          24.2985
          24.2986
          24.2986
          24.2987
          24.2987
          24.2987
          24.2987
          23.9682
          23.7007
          23.5249
          23.4434
          23.4495
          23.5435
          23.7326
          24.0145
          24.3602
          24.3603
          24.3603
          24.3603
          24.3602
          24.3602
          24.3601
          23.5856
          22.8635
          22.2098
          21.6101
          21.037
          21.0505
          21.8305
          22.629
          23.4545
          24.3015
          24.3016
          24.3016
          24.3016
          24.3016
          24.3017
          24.3016
          24.0743
          23.8836
          23.7513
          23.6871
          23.6936
          23.7708
          23.9166
          24.1214
          24.3632
          24.3632
          24.3632
          24.3632
          24.3632
          24.3632
          24.3631
          23.6404
          22.9434
          22.2819
          21.6517
          21.0396
          21.0517
          21.8488
          22.655
          23.4746
          24.3056
          24.3057
          24.3057
          24.3057
          24.3058
          24.3058
          24.3058
          24.1448
          24.0086
          23.9123
          23.8655
          23.8721
          23.9324
          24.0422
          24.1924
          24.3673
          24.3674
          24.3674
          24.3673
          24.3673
          24.3673
          24.3672
          23.6692
          22.9858
          22.322
          21.6762
          21.0412
          21.0523
          21.8579
          22.6682
          23.4859
          24.3109
          24.3109
          24.311
          24.311
          24.311
          24.311
          24.311
          24.195
          24.0969
          24.0277
          23.9946
          24.0014
          24.048
          24.1309
          24.2427
          24.3726
          24.3726
          24.3726
          24.3726
          24.3726
          24.3725
          24.3725
          23.6863
          23.0096
          22.3446
          21.6901
          21.0421
          21.0527
          21.863
          22.6761
          23.494
          24.3173
          24.3173
          24.3174
          24.3174
          24.3174
          24.3174
          24.3174
          24.2323
          24.1611
          24.1114
          24.0885
          24.0953
          24.1318
          24.1952
          24.2801
          24.379
          24.379
          24.379
          24.379
          24.379
          24.379
          24.3789
          23.6982
          23.0243
          22.3581
          21.6984
          21.0426
          21.0529
          21.8664
          22.682
          23.5012
          24.3248
          24.3249
          24.3249
          24.325
          24.325
          24.325
          24.325
          24.2614
          24.2091
          24.1732
          24.1577
          24.1645
          24.1937
          24.2433
          24.3093
          24.3866
          24.3866
          24.3866
          24.3866
          24.3865
          24.3865
          24.3865
          23.7077
          23.0346
          22.3669
          21.7036
          21.0429
          21.0531
          21.8694
          22.6874
          23.5084
          24.3335
          24.3336
          24.3336
          24.3337
          24.3337
          24.3337
          24.3337
          24.2853
          24.2462
          24.2202
          24.2099
          24.2167
          24.2407
          24.2804
          24.3332
          24.3953
          24.3953
          24.3953
          24.3953
          24.3952
          24.3952
          24.3951
          23.7166
          23.0428
          22.3735
          21.7074
          21.0432
          21.0533
          21.8723
          22.6928
          23.5161
          24.3434
          24.3434
          24.3435
          24.3435
          24.3435
          24.3435
          24.3435
          24.3058
          24.2762
          24.2571
          24.2504
          24.2573
          24.2776
          24.3104
          24.3537
          24.4051
          24.4051
          24.4051
          24.4051
          24.4051
          24.405
          24.405
          23.7254
          23.0504
          22.3791
          21.7105
          21.0434
          21.0534
          21.8753
          22.6985
          23.5245
          24.3543
          24.3544
          24.3544
          24.3545
          24.3545
          24.3545
          24.3545
          24.3244
          24.3015
          24.2874
          24.2834
          24.2902
          24.3079
          24.3357
          24.3723
          24.4161
          24.4161
          24.4161
          24.4161
          24.416
          24.416
          24.4159
          23.7348
          23.058
          22.3845
          21.7134
          21.0436
          21.0536
          21.8785
          22.7048
          23.5336
          24.3664
          24.3665
          24.3665
          24.3666
          24.3666
          24.3667
          24.3667
          24.3421
          24.324
          24.3135
          24.3115
          24.3183
          24.3341
          24.3583
          24.39
          24.4283
          24.4283
          24.4282
          24.4282
          24.4281
          24.4281
          24.428
          23.7449
          23.066
          22.3901
          21.7164
          21.0437
          21.0539
          21.8821
          22.7116
          23.5437
          24.3797
          24.3797
          24.3798
          24.3798
          24.3799
          24.3799
          24.38
          24.3596
          24.3452
          24.3374
          24.3368
          24.3436
          24.3579
          24.3794
          24.4075
          24.4416
          24.4415
          24.4415
          24.4415
          24.4414
          24.4413
          24.4413
          23.756
          23.0747
          22.3962
          21.7196
          21.0439
          21.0541
          21.8859
          22.719
          23.5546
          24.394
          24.3941
          24.3942
          24.3943
          24.3943
          24.3944
          24.3944
          24.3774
          24.3658
          24.3602
          24.3607
          24.3676
          24.3807
          24.4
          24.4253
          24.456
          24.456
          24.4559
          24.4559
          24.4558
          24.4557
          24.4556
          23.7681
          23.0843
          22.4031
          21.7233
          21.0442
          21.0544
          21.8902
          22.7272
          23.5665
          24.4095
          24.4095
          24.4097
          24.4098
          24.4099
          24.41
          24.4101
          24.3959
          24.3869
          24.3831
          24.3846
          24.3914
          24.4036
          24.4211
          24.4438
          24.4717
          24.4716
          24.4715
          24.4714
          24.4713
          24.4712
          24.4711
          23.7815
          23.0954
          22.4111
          21.7277
          21.0444
          21.0547
          21.8952
          22.7364
          23.5795
          24.426
          24.4261
          24.4263
          24.4265
          24.4267
          24.4269
          24.4269
          24.4155
          24.4089
          24.4069
          24.4094
          24.4162
          24.4275
          24.4431
          24.4634
          24.4885
          24.4884
          24.4883
          24.4881
          24.4879
          24.4877
          24.4876
          23.7968
          23.1086
          22.4211
          21.7332
          21.0448
          21.0551
          21.9011
          22.7472
          23.594
          24.4436
          24.4437
          24.444
          24.4443
          24.4447
          24.4449
          24.445
          24.4367
          24.4327
          24.4327
          24.4361
          24.443
          24.4532
          24.4669
          24.4846
          24.5066
          24.5065
          24.5063
          24.5059
          24.5056
          24.5053
          24.5052
          23.8146
          23.1253
          22.4345
          21.7409
          21.0453
          21.0555
          21.9091
          22.7608
          23.6109
          24.4621
          24.4623
          24.4627
          24.4633
          24.4639
          24.4643
          24.4645
          24.4598
          24.459
          24.4612
          24.4658
          24.4727
          24.4817
          24.4932
          24.5077
          24.526
          24.5259
          24.5255
          24.5249
          24.5243
          24.5239
          24.5237
          23.8365
          23.1482
          22.4539
          21.7524
          21.0459
          21.0568
          21.9212
          22.7804
          23.6322
          24.4814
          24.4817
          24.4824
          24.4834
          24.4844
          24.4851
          24.4854
          24.4854
          24.4886
          24.4936
          24.4998
          24.5066
          24.5141
          24.5227
          24.5333
          24.5469
          24.5467
          24.546
          24.545
          24.544
          24.5433
          24.5431
          23.8655
          23.182
          22.4845
          21.771
          21.0476
          21.056
          21.9435
          22.8125
          23.6627
          24.5013
          24.5018
          24.503
          24.5046
          24.5063
          24.5076
          24.508
          24.5143
          24.5227
          24.5314
          24.5394
          24.5462
          24.5519
          24.5568
          24.5621
          24.5695
          24.5691
          24.5679
          24.5662
          24.5646
          24.5635
          24.563
          23.9069
          23.2362
          22.5359
          21.8043
          21.0475
          21.0688
          21.983
          22.8742
          23.7124
          24.5215
          24.5222
          24.5242
          24.5269
          24.5298
          24.532
          24.5328
          24.5477
          24.5629
          24.5764
          24.5867
          24.5935
          24.5968
          24.597
          24.5954
          24.5943
          24.5935
          24.5914
          24.5886
          24.5858
          24.5839
          24.5832
          23.9701
          23.3274
          22.6293
          21.8611
          21.0616
          21.0309
          22.0892
          22.9944
          23.8058
          24.5414
          24.5425
          24.5456
          24.5502
          24.5552
          24.5591
          24.5606
          24.5873
          24.6116
          24.6309
          24.6441
          24.6508
          24.6512
          24.6456
          24.6349
          24.622
          24.6205
          24.6167
          24.6118
          24.6073
          24.6042
          24.6031
          24.0685
          23.4877
          22.7972
          21.9929
          21.0246
          21.2429
          22.244
          23.2814
          23.976
          24.5601
          24.5618
          24.5666
          24.574
          24.5827
          24.59
          24.5931
          24.6365
          24.6723
          24.698
          24.7141
          24.7208
          24.7183
          24.706
          24.6838
          24.6542
          24.6513
          24.6442
          24.6357
          24.6284
          24.6235
          24.6218
          24.2153
          23.7557
          23.1512
          22.1817
          21.2416
          20.41
          23.0895
          23.8203
          24.244
          24.5764
          24.5789
          24.5861
          24.5972
          24.6115
          24.6279
          24.6335
          24.7025
          24.7496
          24.7809
          24.7996
          24.8063
          24.8011
          24.7832
          24.7491
          24.6941
          24.6887
          24.6732
          24.6592
          24.6481
          24.6407
          24.6381
          24.4125
          24.1517
          23.7758
          23.0782
          20.3987
          24.5708
          24.5761
          24.5808
          24.5858
          24.5885
          24.5924
          24.6027
          24.6183
          24.6393
          24.6663
          24.7101
          24.7966
          24.8469
          24.8822
          24.9031
          24.9099
          24.9026
          24.8806
          24.8427
          24.7673
          24.7272
          24.7017
          24.6809
          24.6651
          24.6542
          24.6497
          24.6456
          24.6396
          24.634
          24.629
          24.6236
          24.5728
          24.5766
          24.5812
          24.5864
          24.5928
          24.6019
          24.6154
          24.6351
          24.6621
          24.6993
          24.7499
          24.8049
          24.855
          24.8898
          24.9107
          24.9175
          24.9104
          24.8891
          24.8521
          24.8073
          24.7625
          24.7265
          24.6988
          24.6782
          24.6638
          24.6537
          24.6462
          24.6398
          24.6342
          24.6295
          24.6256
          24.575
          24.5776
          24.5819
          24.5878
          24.5959
          24.6073
          24.6234
          24.6459
          24.6769
          24.7191
          24.7743
          24.8317
          24.8784
          24.9126
          24.9333
          24.9402
          24.9334
          24.9132
          24.881
          24.8391
          24.7898
          24.744
          24.7107
          24.6866
          24.6693
          24.6568
          24.6475
          24.6403
          24.6346
          24.6304
          24.6278
          24.5767
          24.5781
          24.5822
          24.5884
          24.597
          24.6091
          24.626
          24.6496
          24.6819
          24.7256
          24.7859
          24.8475
          24.894
          24.9278
          24.9483
          24.9552
          24.9487
          24.9291
          24.8979
          24.8564
          24.8021
          24.7503
          24.7149
          24.6895
          24.6711
          24.6578
          24.648
          24.6405
          24.6348
          24.6308
          24.6295
        </DataArray>
      </PointData>
      <CellData>
      </CellData>
      <Points>
        <DataArray type="Float32" NumberOfComponents="3" format="ascii">
          0.039 0.00195 0.0
          0.0377 0.00195 0.0
          0.0364 0.00195 0.0
          0.0351 0.00195 0.0
          0.0338 0.00195 0.0
          0.0325 0.00195 0.0
          0.0312 0.00195 0.0
          0.0299 0.00195 0.0
          0.0286 0.00195 0.0
          0.0273 0.00195 0.0
          0.026 0.00195 0.0
          0.0247 0.00195 0.0
          0.0234 0.00195 0.0
          0.0221 0.00195 0.0
          0.0208 0.00195 0.0
          0.0195 0.00195 0.0
          0.0182 0.00195 0.0
          0.0169 0.00195 0.0
          0.0156 0.00195 0.0
          0.0143 0.00195 0.0
          0.013 0.00195 0.0
          0.0117 0.00195 0.0
          0.0104 0.00195 0.0
          0.0091 0.00195 0.0
          0.0078 0.00195 0.0
          0.0065 0.00195 0.0
          0.0052 0.00195 0.0
          0.0039 0.00195 0.0
          0.0026 0.00195 0.0
          0.0013 0.00195 0.0
          0 0.00195 0.0
          0.039 0.00065 0.0
          0.0377 0.00065 0.0
          0.0364 0.00065 0.0
          0.0351 0.00065 0.0
          0.0338 0.00065 0.0
          0.0325 0.00065 0.0
          0.0312 0.00065 0.0
          0.0299 0.00065 0.0
          0.0286 0.00065 0.0
          0.0273 0.00065 0.0
          0.026 0.00065 0.0
          0.0247 0.00065 0.0
          0.0234 0.00065 0.0
          0.0221 0.00065 0.0
          0.0208 0.00065 0.0
          0.0195 0.00065 0.0
          0.0182 0.00065 0.0
          0.0169 0.00065 0.0
          0.0156 0.00065 0.0
          0.0143 0.00065 0.0
          0.013 0.00065 0.0
          0.0117 0.00065 0.0
          0.0104 0.00065 0.0
          0.0091 0.00065 0.0
          0.0078 0.00065 0.0
          0.0065 0.00065 0.0
          0.0052 0.00065 0.0
          0.0039 0.00065 0.0
          0.0026 0.00065 0.0
          0.0013 0.00065 0.0
          0 0.00065 0.0
          0.039 -0.00065 0.0
          0.0377 -0.00065 0.0
          0.0364 -0.00065 0.0
          0.0351 -0.00065 0.0
          0.0338 -0.00065 0.0
          0.0325 -0.00065 0.0
          0.0312 -0.00065 0.0
          0.0299 -0.00065 0.0
          0.0286 -0.00065 0.0
          0.0273 -0.00065 0.0
          0.026 -0.00065 0.0
          0.0247 -0.00065 0.0
          0.0234 -0.00065 0.0
          0.0221 -0.00065 0.0
          0.0208 -0.00065 0.0
          0.0195 -0.00065 0.0
          0.0182 -0.00065 0.0
          0.0169 -0.00065 0.0
          0.0156 -0.00065 0.0
          0.0143 -0.00065 0.0
          0.013 -0.00065 0.0
          0.0117 -0.00065 0.0
          0.0104 -0.00065 0.0
          0.0091 -0.00065 0.0
          0.0078 -0.00065 0.0
          0.0065 -0.00065 0.0
          0.0052 -0.00065 0.0
          0.0039 -0.00065 0.0
          0.0026 -0.00065 0.0
          0.0013 -0.00065 0.0
          0 -0.00065 0.0
          0.039 -0.00195 0.0
          0.0377 -0.00195 0.0
          0.0364 -0.00195 0.0
          0.0351 -0.00195 0.0
          0.0338 -0.00195 0.0
          0.0325 -0.00195 0.0
          0.0312 -0.00195 0.0
          0.0299 -0.00195 0.0
          0.0286 -0.00195 0.0
          0.0273 -0.00195 0.0
          0.026 -0.00195 0.0
          0.0247 -0.00195 0.0
          0.0234 -0.00195 0.0
          0.0221 -0.00195 0.0
          0.0208 -0.00195 0.0
          0.0195 -0.00195 0.0
          0.0182 -0.00195 0.0
          0.0169 -0.00195 0.0
          0.0156 -0.00195 0.0
          0.0143 -0.00195 0.0
          0.013 -0.00195 0.0
          0.0117 -0.00195 0.0
          0.0104 -0.00195 0.0
          0.0091 -0.00195 0.0
          0.0078 -0.00195 0.0
          0.0065 -0.00195 0.0
          0.0052 -0.00195 0.0
          0.0039 -0.00195 0.0
          0.0026 -0.00195 0.0
          0.0013 -0.00195 0.0
          0 -0.00195 0.0
          0.039 -0.00325 0.0
          0.0377 -0.00325 0.0
          0.0364 -0.00325 0.0
          0.0351 -0.00325 0.0
          0.0338 -0.00325 0.0
          0.0325 -0.00325 0.0
          0.0312 -0.00325 0.0
          0.0299 -0.00325 0.0
          0.0286 -0.00325 0.0
          0.0273 -0.00325 0.0
          0.026 -0.00325 0.0
          0.0247 -0.00325 0.0
          0.0234 -0.00325 0.0
          0.0221 -0.00325 0.0
          0.0208 -0.00325 0.0
          0.0195 -0.00325 0.0
          0.0182 -0.00325 0.0
          0.0169 -0.00325 0.0
          0.0156 -0.00325 0.0
          0.0143 -0.00325 0.0
          0.013 -0.00325 0.0
          0.0117 -0.00325 0.0
          0.0104 -0.00325 0.0
          0.0091 -0.00325 0.0
          0.0078 -0.00325 0.0
          0.0065 -0.00325 0.0
          0.0052 -0.00325 0.0
          0.0039 -0.00325 0.0
          0.0026 -0.00325 0.0
          0.0013 -0.00325 0.0
          0 -0.00325 0.0
          0.039 -0.00455 0.0
          0.0377 -0.00455 0.0
          0.0364 -0.00455 0.0
          0.0351 -0.00455 0.0
          0.0338 -0.00455 0.0
          0.0325 -0.00455 0.0
          0.0312 -0.00455 0.0
          0.0299 -0.00455 0.0
          0.0286 -0.00455 0.0
          0.0273 -0.00455 0.0
          0.026 -0.00455 0.0
          0.0247 -0.00455 0.0
          0.0234 -0.00455 0.0
          0.0221 -0.00455 0.0
          0.0208 -0.00455 0.0
          0.0195 -0.00455 0.0
          0.0182 -0.00455 0.0
          0.0169 -0.00455 0.0
          0.0156 -0.00455 0.0
          0.0143 -0.00455 0.0
          0.013 -0.00455 0.0
          0.0117 -0.00455 0.0
          0.0104 -0.00455 0.0
          0.0091 -0.00455 0.0
          0.0078 -0.00455 0.0
          0.0065 -0.00455 0.0
          0.0052 -0.00455 0.0
          0.0039 -0.00455 0.0
          0.0026 -0.00455 0.0
          0.0013 -0.00455 0.0
          0 -0.00455 0.0
          0.039 -0.00585 0.0
          0.0377 -0.00585 0.0
          0.0364 -0.00585 0.0
          0.0351 -0.00585 0.0
          0.0338 -0.00585 0.0
          0.0325 -0.00585 0.0
          0.0312 -0.00585 0.0
          0.0299 -0.00585 0.0
          0.0286 -0.00585 0.0
          0.0273 -0.00585 0.0
          0.026 -0.00585 0.0
          0.0247 -0.00585 0.0
          0.0234 -0.00585 0.0
          0.0221 -0.00585 0.0
          0.0208 -0.00585 0.0
          0.0195 -0.00585 0.0
          0.0182 -0.00585 0.0
          0.0169 -0.00585 0.0
          0.0156 -0.00585 0.0
          0.0143 -0.00585 0.0
          0.013 -0.00585 0.0
          0.0117 -0.00585 0.0
          0.0104 -0.00585 0.0
          0.0091 -0.00585 0.0
          0.0078 -0.00585 0.0
          0.0065 -0.00585 0.0
          0.0052 -0.00585 0.0
          0.0039 -0.00585 0.0
          0.0026 -0.00585 0.0
          0.0013 -0.00585 0.0
          0 -0.00585 0.0
          0.039 -0.00715 0.0
          0.0377 -0.00715 0.0
          0.0364 -0.00715 0.0
          0.0351 -0.00715 0.0
          0.0338 -0.00715 0.0
          0.0325 -0.00715 0.0
          0.0312 -0.00715 0.0
          0.0299 -0.00715 0.0
          0.0286 -0.00715 0.0
          0.0273 -0.00715 0.0
          0.026 -0.00715 0.0
          0.0247 -0.00715 0.0
          0.0234 -0.00715 0.0
          0.0221 -0.00715 0.0
          0.0208 -0.00715 0.0
          0.0195 -0.00715 0.0
          0.0182 -0.00715 0.0
          0.0169 -0.00715 0.0
          0.0156 -0.00715 0.0
          0.0143 -0.00715 0.0
          0.013 -0.00715 0.0
          0.0117 -0.00715 0.0
          0.0104 -0.00715 0.0
          0.0091 -0.00715 0.0
          0.0078 -0.00715 0.0
          0.0065 -0.00715 0.0
          0.0052 -0.00715 0.0
          0.0039 -0.00715 0.0
          0.0026 -0.00715 0.0
          0.0013 -0.00715 0.0
          0 -0.00715 0.0
          0.039 -0.00845 0.0
          0.0377 -0.00845 0.0
          0.0364 -0.00845 0.0
          0.0351 -0.00845 0.0
          0.0338 -0.00845 0.0
          0.0325 -0.00845 0.0
          0.0312 -0.00845 0.0
          0.0299 -0.00845 0.0
          0.0286 -0.00845 0.0
          0.0273 -0.00845 0.0
          0.026 -0.00845 0.0
          0.0247 -0.00845 0.0
          0.0234 -0.00845 0.0
          0.0221 -0.00845 0.0
          0.0208 -0.00845 0.0
          0.0195 -0.00845 0.0
          0.0182 -0.00845 0.0
          0.0169 -0.00845 0.0
          0.0156 -0.00845 0.0
          0.0143 -0.00845 0.0
          0.013 -0.00845 0.0
          0.0117 -0.00845 0.0
          0.0104 -0.00845 0.0
          0.0091 -0.00845 0.0
          0.0078 -0.00845 0.0
          0.0065 -0.00845 0.0
          0.0052 -0.00845 0.0
          0.0039 -0.00845 0.0
          0.0026 -0.00845 0.0
          0.0013 -0.00845 0.0
          0 -0.00845 0.0
          0.039 -0.00975 0.0
          0.0377 -0.00975 0.0
          0.0364 -0.00975 0.0
          0.0351 -0.00975 0.0
          0.0338 -0.00975 0.0
          0.0325 -0.00975 0.0
          0.0312 -0.00975 0.0
          0.0299 -0.00975 0.0
          0.0286 -0.00975 0.0
          0.0273 -0.00975 0.0
          0.026 -0.00975 0.0
          0.0247 -0.00975 0.0
          0.0234 -0.00975 0.0
          0.0221 -0.00975 0.0
          0.0208 -0.00975 0.0
          0.0195 -0.00975 0.0
          0.0182 -0.00975 0.0
          0.0169 -0.00975 0.0
          0.0156 -0.00975 0.0
          0.0143 -0.00975 0.0
          0.013 -0.00975 0.0
          0.0117 -0.00975 0.0
          0.0104 -0.00975 0.0
          0.0091 -0.00975 0.0
          0.0078 -0.00975 0.0
          0.0065 -0.00975 0.0
          0.0052 -0.00975 0.0
          0.0039 -0.00975 0.0
          0.0026 -0.00975 0.0
          0.0013 -0.00975 0.0
          0 -0.00975 0.0
          0.039 -0.01105 0.0
          0.0377 -0.01105 0.0
          0.0364 -0.01105 0.0
          0.0351 -0.01105 0.0
          0.0338 -0.01105 0.0
          0.0325 -0.01105 0.0
          0.0312 -0.01105 0.0
          0.0299 -0.01105 0.0
          0.0286 -0.01105 0.0
          0.0273 -0.01105 0.0
          0.026 -0.01105 0.0
          0.0247 -0.01105 0.0
          0.0234 -0.01105 0.0
          0.0221 -0.01105 0.0
          0.0208 -0.01105 0.0
          0.0195 -0.01105 0.0
          0.0182 -0.01105 0.0
          0.0169 -0.01105 0.0
          0.0156 -0.01105 0.0
          0.0143 -0.01105 0.0
          0.013 -0.01105 0.0
          0.0117 -0.01105 0.0
          0.0104 -0.01105 0.0
          0.0091 -0.01105 0.0
          0.0078 -0.01105 0.0
          0.0065 -0.01105 0.0
          0.0052 -0.01105 0.0
          0.0039 -0.01105 0.0
          0.0026 -0.01105 0.0
          0.0013 -0.01105 0.0
          0 -0.01105 0.0
          0.039 -0.01235 0.0
          0.0377 -0.01235 0.0
          0.0364 -0.01235 0.0
          0.0351 -0.01235 0.0
          0.0338 -0.01235 0.0
          0.0325 -0.01235 0.0
          0.0312 -0.01235 0.0
          0.0299 -0.01235 0.0
          0.0286 -0.01235 0.0
          0.0273 -0.01235 0.0
          0.026 -0.01235 0.0
          0.0247 -0.01235 0.0
          0.0234 -0.01235 0.0
          0.0221 -0.01235 0.0
          0.0208 -0.01235 0.0
          0.0195 -0.01235 0.0
          0.0182 -0.01235 0.0
          0.0169 -0.01235 0.0
          0.0156 -0.01235 0.0
          0.0143 -0.01235 0.0
          0.013 -0.01235 0.0
          0.0117 -0.01235 0.0
          0.0104 -0.01235 0.0
          0.0091 -0.01235 0.0
          0.0078 -0.01235 0.0
          0.0065 -0.01235 0.0
          0.0052 -0.01235 0.0
          0.0039 -0.01235 0.0
          0.0026 -0.01235 0.0
          0.0013 -0.01235 0.0
          0 -0.01235 0.0
          0.039 -0.01365 0.0
          0.0377 -0.01365 0.0
          0.0364 -0.01365 0.0
          0.0351 -0.01365 0.0
          0.0338 -0.01365 0.0
          0.0325 -0.01365 0.0
          0.0312 -0.01365 0.0
          0.0299 -0.01365 0.0
          0.0286 -0.01365 0.0
          0.0273 -0.01365 0.0
          0.026 -0.01365 0.0
          0.0247 -0.01365 0.0
          0.0234 -0.01365 0.0
          0.0221 -0.01365 0.0
          0.0208 -0.01365 0.0
          0.0195 -0.01365 0.0
          0.0182 -0.01365 0.0
          0.0169 -0.01365 0.0
          0.0156 -0.01365 0.0
          0.0143 -0.01365 0.0
          0.013 -0.01365 0.0
          0.0117 -0.01365 0.0
          0.0104 -0.01365 0.0
          0.0091 -0.01365 0.0
          0.0078 -0.01365 0.0
          0.0065 -0.01365 0.0
          0.0052 -0.01365 0.0
          0.0039 -0.01365 0.0
          0.0026 -0.01365 0.0
          0.0013 -0.01365 0.0
          0 -0.01365 0.0
          0.039 -0.01495 0.0
          0.0377 -0.01495 0.0
          0.0364 -0.01495 0.0
          0.0351 -0.01495 0.0
          0.0338 -0.01495 0.0
          0.0325 -0.01495 0.0
          0.0312 -0.01495 0.0
          0.0299 -0.01495 0.0
          0.0286 -0.01495 0.0
          0.0273 -0.01495 0.0
          0.026 -0.01495 0.0
          0.0247 -0.01495 0.0
          0.0234 -0.01495 0.0
          0.0221 -0.01495 0.0