<?xml version="1.0"?>
<VTKFile type="UnstructuredGrid" version="0.1" byte_order="LittleEndian">
  <UnstructuredGrid>
    <Piece NumberOfPoints="961" NumberOfCells="900">
      <PointData Scalars="Temperature">
        <DataArray type="Float32" Name="Temperature" format="ascii">
          21.0006
          21.011
          21.0217
          21.0324
          21.0415
          21.0479
          21.0511
          21.0522
          21.0517
          21.0497
          21.0459
          21.0409
          21.0358
          21.0321
          21.0302
          21.0303
          21.0324
          21.0364
          21.0417
          21.0469
          21.0509
          21.0529
          21.0535
          21.0525
          21.0495
          21.0436
          21.0353
          21.0257
          21.0165
          21.0082
          21.0005
          21.0107
          21.177
          21.3557
          21.5352
          21.692
          21.794
          21.844
          21.8571
          21.8518
          21.8205
          21.7581
          21.6688
          21.582
          21.5181
          21.4887
          21.4904
          21.5234
          21.5912
          21.6821
          21.775
          21.8398
          21.8724
          21.8784
          21.8664
          21.8196
          21.7247
          21.5807
          21.4199
          21.2662
          21.1319
          21.0079
          21.0198
          21.3301
          21.668
          22.0724
          22.4022
          22.6154
          22.6642
          22.6769
          22.6717
          22.6411
          22.5006
          22.3027
          22.09
          21.9717
          21.9186
          21.9219
          21.9816
          22.1073
          22.3292
          22.5346
          22.6801
          22.712
          22.7178
          22.7062
          22.6605
          22.4597
          22.1541
          21.7871
          21.4964
          21.2459
          21.0148
          21.0275
          21.4566
          21.9281
          22.4936
          23.5128
          23.5129
          23.513
          23.513
          23.513
          23.513
          23.5129
          22.7989
          22.5205
          22.3653
          22.2978
          22.3023
          22.379
          22.5446
          22.8357
          23.5732
          23.5733
          23.5733
          23.5733
          23.5733
          23.5732
          23.5731
          22.6028
          22.0933
          21.6889
          21.3421
          21.0206
          21.033
          21.5477
          22.1024
          22.7612
          23.5135
          23.5136
          23.5136
          23.5136
          23.5136
          23.5136
          23.5136
          23.1252
          22.8395
          22.6824
          22.6125
          22.6179
          22.6989
          22.8682
          23.1686
          23.5739
          23.5739
          23.5739
          23.5739
          23.5739
          23.5739
          23.5738
          22.8895
          22.3037
          21.8321
          21.4158
          21.0251
          21.0365
          21.6033
          22.1986
          22.8385
          23.5153
          23.5154
          23.5154
          23.5154
          23.5154
          23.5154
          23.5154
          23.2611
          23.0557
          22.9213
          22.8596
          22.8656
          22.9395
          23.0869
          23.3064
          23.5757
          23.5757
          23.5757
          23.5757
          23.5757
          23.5757
          23.5757
          22.9806
          22.4267
          21.9258
          21.4667
          21.0283
          21.0385
          21.6326
          22.2413
          22.8711
          23.5183
          23.5183
          23.5184
          23.5184
          23.5184
          23.5184
          23.5184
          23.3424
          23.1954
          23.0941
          23.0456
          23.052
          23.1132
          23.2278
          23.3886
          23.5787
          23.5787
          23.5787
          23.5787
          23.5787
          23.5787
          23.5786
          23.0231
          22.4882
          21.9813
          21.4988
          21.0303
          21.0394
          21.6468
          22.2616
          22.8871
          23.5224
          23.5225
          23.5225
          23.5225
          23.5225
          23.5225
          23.5225
          23.397
          23.2914
          23.2174
          23.1821
          23.1886
          23.237
          23.3244
          23.4435
          23.5828
          23.5828
          23.5828
          23.5828
          23.5828
          23.5828
          23.5828
          23.0459
          22.5212
          22.0123
          21.5177
          21.0315
          21.0399
          21.6541
          22.2723
          22.8968
          23.5277
          23.5277
          23.5278
          23.5278
          23.5278
          23.5278
          23.5278
          23.4363
          23.3597
          23.3063
          23.2815
          23.2881
          23.3262
          23.393
          23.483
          23.5881
          23.5881
          23.5881
          23.5881
          23.5881
          23.5881
          23.5881
          23.06
          22.5402
          22.0301
          21.5286
          21.0322
          21.0402
          21.6584
          22.2791
          22.9041
          23.5341
          23.5341
          23.5342
          23.5342
          23.5342
          23.5342
          23.5342
          23.4662
          23.41
          23.3714
          23.3543
          23.361
          23.3914
          23.4434
          23.5131
          23.5946
          23.5946
          23.5946
          23.5946
          23.5945
          23.5945
          23.5945
          23.0703
          22.5524
          22.041
          21.5352
          21.0326
          21.0404
          21.6615
          22.2845
          22.9109
          23.5417
          23.5417
          23.5418
          23.5418
          23.5418
          23.5418
          23.5418
          23.4902
          23.4483
          23.4201
          23.4087
          23.4153
          23.4402
          23.4817
          23.5371
          23.6022
          23.6022
          23.6022
          23.6022
          23.6021
          23.6021
          23.6021
          23.079
          22.5613
          22.0485
          21.5396
          21.0329
          21.0406
          21.6643
          22.2897
          22.918
          23.5504
          23.5504
          23.5505
          23.5505
          23.5505
          23.5505
          23.5505
          23.5104
          23.4786
          23.4579
          23.4504
          23.4571
          23.478
          23.5121
          23.5573
          23.6109
          23.6109
          23.6109
          23.6109
          23.6109
          23.6109
          23.6108
          23.0875
          22.5689
          22.0544
          21.5429
          21.0331
          21.0407
          21.6671
          22.295
          22.9256
          23.5603
          23.5603
          23.5604
          23.5604
          23.5604
          23.5604
          23.5604
          23.5284
          23.5038
          23.4884
          23.4837
          23.4904
          23.5085
          23.5373
          23.5754
          23.6208
          23.6208
          23.6208
          23.6208
          23.6208
          23.6207
          23.6207
          23.0962
          22.5761
          22.0597
          21.5458
          21.0333
          21.0409
          21.6701
          22.3007
          22.934
          23.5713
          23.5713
          23.5714
          23.5714
          23.5715
          23.5715
          23.5715
          23.5453
          23.5258
          23.5142
          23.5115
          23.5182
          23.5343
          23.5593
          23.5923
          23.6319
          23.6319
          23.6319
          23.6319
          23.6318
          23.6318
          23.6318
          23.1055
          22.5835
          22.0649
          21.5486
          21.0335
          21.0411
          21.6734
          22.307
          22.9433
          23.5835
          23.5835
          23.5836
          23.5836
          23.5836
          23.5837
          23.5837
          23.5618
          23.546
          23.5372
          23.536
          23.5428
          23.5574
          23.5796
          23.6088
          23.6441
          23.6441
          23.6441
          23.6441
          23.644
          23.644
          23.6439
          23.1156
          22.5914
          22.0704
          21.5515
          21.0337
          21.0413
          21.6769
          22.3138
          22.9533
          23.5968
          23.5968
          23.5969
          23.5969
          23.597
          23.597
          23.5971
          23.5784
          23.5656
          23.5589
          23.5588
          23.5656
          23.579
          23.5991
          23.6255
          23.6575
          23.6575
          23.6575
          23.6574
          23.6574
          23.6573
          23.6573
          23.1266
          22.6
          22.0763
          21.5546
          21.0339
          21.0416
          21.6808
          22.3213
          22.9643
          23.6112
          23.6113
          23.6113
          23.6114
          23.6115
          23.6116
          23.6116
          23.5957
          23.5852
          23.5802
          23.5811
          23.5878
          23.6004
          23.6187
          23.6427
          23.6721
          23.6721
          23.672
          23.6719
          23.6719
          23.6718
          23.6717
          23.1387
          22.6095
          22.083
          21.5582
          21.0341
          21.0418
          21.685
          22.3294
          22.9762
          23.6268
          23.6268
          23.6269
          23.6271
          23.6272
          23.6273
          23.6273
          23.6138
          23.6055
          23.6021
          23.6038
          23.6105
          23.6223
          23.6391
          23.6609
          23.6878
          23.6878
          23.6877
          23.6876
          23.6875
          23.6874
          23.6873
          23.152
          22.6202
          22.0907
          21.5623
          21.0343
          21.0421
          21.6898
          22.3385
          22.9892
          23.6434
          23.6435
          23.6437
          23.6439
          23.6441
          23.6442
          23.6443
          23.6333
          23.6271
          23.6253
          23.6278
          23.6346
          23.6455
          23.6607
          23.6804
          23.7048
          23.7048
          23.7046
          23.7044
          23.7042
          23.7041
          23.704
          23.1669
          22.6328
          22.1
          21.5674
          21.0347
          21.0425
          21.6955
          22.3489
          23.0035
          23.6611
          23.6612
          23.6615
          23.6618
          23.6622
          23.6624
          23.6625
          23.6543
          23.6505
          23.6506
          23.6541
          23.6608
          23.6708
          23.6842
          23.7014
          23.7231
          23.723
          23.7227
          23.7224
          23.7221
          23.7218
          23.7217
          23.184
          22.6483
          22.1121
          21.5742
          21.0351
          21.0429
          21.7028
          22.3616
          23.0198
          23.6797
          23.6799
          23.6803
          23.6809
          23.6815
          23.6819
          23.682
          23.6774
          23.6766
          23.6788
          23.6835
          23.6902
          23.699
          23.7103
          23.7245
          23.7426
          23.7425
          23.7421
          23.7415
          23.741
          23.7405
          23.7404
          23.2045
          22.6686
          22.1289
          21.5841
          21.0356
          21.044
          21.7134
          22.3791
          23.0397
          23.6992
          23.6995
          23.7002
          23.7011
          23.7021
          23.7028
          23.7031
          23.703
          23.7061
          23.7111
          23.7172
          23.7239
          23.7313
          23.7398
          23.7502
          23.7637
          23.7634
          23.7627
          23.7618
          23.7609
          23.7602
          23.7599
          23.2306
          22.6977
          22.1546
          21.5996
          21.0371
          21.0434
          21.7319
          22.4063
          23.0668
          23.7193
          23.7197
          23.7209
          23.7225
          23.7242
          23.7254
          23.7259
          23.732
          23.7403
          23.7489
          23.7568
          23.7635
          23.769
          23.7739
          23.7791
          23.7865
          23.786
          23.7848
          23.7832
          23.7816
          23.7805
          23.78
          23.2666
          22.7429
          22.1968
          21.6266
          21.037
          21.0535
          21.764
          22.4568
          23.109
          23.7396
          23.7403
          23.7422
          23.745
          23.7478
          23.75
          23.7508
          23.7655
          23.7806
          23.7939
          23.8041
          23.8108
          23.814
          23.8141
          23.8125
          23.8114
          23.8106
          23.8085
          23.8057
          23.803
          23.8011
          23.8004
          23.3197
          22.8171
          22.2718
          21.6721
          21.0481
          21.024
          21.8482
          22.5531
          23.1854
          23.7596
          23.7608
          23.7638
          23.7684
          23.7733
          23.7772
          23.7787
          23.8052
          23.8294
          23.8485
          23.8615
          23.8682
          23.8686
          23.8628
          23.8522
          23.8392
          23.8378
          23.834
          23.8292
          23.8247
          23.8216
          23.8205
          23.4006
          22.9456
          22.4054
          21.7765
          21.0191
          21.1898
          21.9704
          22.7798
          23.3218
          23.7786
          23.7802
          23.785
          23.7923
          23.801
          23.8083
          23.8113
          23.8544
          23.8901
          23.9157
          23.9317
          23.9383
          23.9357
          23.9235
          23.9012
          23.8717
          23.8687
          23.8617
          23.8532
          23.846
          23.8412
          23.8395
          23.5193
          23.1588
          22.6853
          21.9257
          21.1896
          20.5383
          22.6331
          23.2038
          23.5347
          23.7952
          23.7977
          23.8047
          23.8157
          23.8299
          23.8462
          23.8518
          23.9206
          23.9676
          23.9987
          24.0173
          24.024
          24.0188
          24.0008
          23.9667
          23.9117
          23.9063
          23.8909
          23.877
          23.8659
          23.8587
          23.8561
          23.6777
          23.4728
          23.178
          22.6309
          20.5277
          23.7934
          23.7977
          23.8017
          23.8061
          23.8079
          23.8115
          23.8215
          23.8369
          23.8578
          23.8847
          23.9285
          24.0149
          24.065
          24.1002
          24.1211
          24.1279
          24.1205
          24.0985
          24.0605
          23.985
          23.945
          23.9195
          23.8988
          23.8831
          23.8725
          23.8683
          23.8651
          23.8597
          23.8547
          23.8504
          23.8461
          23.795
          23.7981
          23.8021
          23.8067
          23.8126
          23.8212
          23.8344
          23.8538
          23.8806
          23.9177
          23.9682
          24.0232
          24.0731
          24.1079
          24.1286
          24.1354
          24.1283
          24.1069
          24.0699
          24.0251
          23.9803
          23.9445
          23.9169
          23.8965
          23.8823
          23.8727
          23.8657
          23.8599
          23.8549
          23.8508
          23.8476
          23.7968
          23.799
          23.8027
          23.8081
          23.8157
          23.8267
          23.8424
          23.8647
          23.8955
          23.9375
          23.9926
          24.0499
          24.0965
          24.1307
          24.1512
          24.1581
          24.1513
          24.1311
          24.0989
          24.057
          24.0077
          23.962
          23.9288
          23.905
          23.8879
          23.8758
          23.867
          23.8604
          23.8553
          23.8516
          23.8494
          23.7981
          23.7993
          23.803
          23.8087
          23.8169
          23.8285
          23.8451
          23.8684
          23.9006
          23.9441
          24.0042
          24.0657
          24.1121
          24.1458
          24.1663
          24.1732
          24.1665
          24.147
          24.1158
          24.0743
          24.02
          23.9683
          23.933
          23.9079
          23.8899
          23.8769
          23.8676
          23.8606
          23.8554
          23.8519
          23.8507
        </DataArray>
      </PointData>
      <CellData>
      </CellData>
      <Points>
        <DataArray type="Float32" NumberOfComponents="3" format="ascii">
          0.039 0.00195 0.0
          0.0377 0.00195 0.0
          0.0364 0.00195 0.0
          0.0351 0.00195 0.0
          0.0338 0.00195 0.0
          0.0325 0.00195 0.0
          0.0312 0.00195 0.0
          0.0299 0.00195 0.0
          0.0286 0.00195 0.0
          0.0273 0.00195 0.0
          0.026 0.00195 0.0
          0.0247 0.00195 0.0
          0.0234 0.00195 0.0
          0.0221 0.00195 0.0
          0.0208 0.00195 0.0
          0.0195 0.00195 0.0
          0.0182 0.00195 0.0
          0.0169 0.00195 0.0
          0.0156 0.00195 0.0
          0.0143 0.00195 0.0
          0.013 0.00195 0.0
          0.0117 0.00195 0.0
          0.0104 0.00195 0.0
          0.0091 0.00195 0.0
          0.0078 0.00195 0.0
          0.0065 0.00195 0.0
          0.0052 0.00195 0.0
          0.0039 0.00195 0.0
          0.0026 0.00195 0.0
          0.0013 0.00195 0.0
          0 0.00195 0.0
          0.039 0.00065 0.0
          0.0377 0.00065 0.0
          0.0364 0.00065 0.0
          0.0351 0.00065 0.0
          0.0338 0.00065 0.0
          0.0325 0.00065 0.0
          0.0312 0.00065 0.0
          0.0299 0.00065 0.0
          0.0286 0.00065 0.0
          0.0273 0.00065 0.0
          0.026 0.00065 0.0
          0.0247 0.00065 0.0
          0.0234 0.00065 0.0
          0.0221 0.00065 0.0
          0.0208 0.00065 0.0
          0.0195 0.00065 0.0
          0.0182 0.00065 0.0
          0.0169 0.00065 0.0
          0.0156 0.00065 0.0
          0.0143 0.00065 0.0
          0.013 0.00065 0.0
          0.0117 0.00065 0.0
          0.0104 0.00065 0.0
          0.0091 0.00065 0.0
          0.0078 0.00065 0.0
          0.0065 0.00065 0.0
          0.0052 0.00065 0.0
          0.0039 0.00065 0.0
          0.0026 0.00065 0.0
          0.0013 0.00065 0.0
          0 0.00065 0.0
          0.039 -0.00065 0.0
          0.0377 -0.00065 0.0
          0.0364 -0.00065 0.0
          0.0351 -0.00065 0.0
          0.0338 -0.00065 0.0
          0.0325 -0.00065 0.0
          0.0312 -0.00065 0.0
          0.0299 -0.00065 0.0
          0.0286 -0.00065 0.0
          0.0273 -0.00065 0.0
          0.026 -0.00065 0.0
          0.0247 -0.00065 0.0
          0.0234 -0.00065 0.0
          0.0221 -0.00065 0.0
          0.0208 -0.00065 0.0
          0.0195 -0.00065 0.0
          0.0182 -0.00065 0.0
          0.0169 -0.00065 0.0
          0.0156 -0.00065 0.0
          0.0143 -0.00065 0.0
          0.013 -0.00065 0.0
          0.0117 -0.00065 0.0
          0.0104 -0.00065 0.0
          0.0091 -0.00065 0.0
          0.0078 -0.00065 0.0
          0.0065 -0.00065 0.0
          0.0052 -0.00065 0.0
          0.0039 -0.00065 0.0
          0.0026 -0.00065 0.0
          0.0013 -0.00065 0.0
          0 -0.00065 0.0
          0.039 -0.00195 0.0
          0.0377 -0.00195 0.0
          0.0364 -0.00195 0.0
          0.0351 -0.00195 0.0
          0.0338 -0.00195 0.0
          0.0325 -0.00195 0.0
          0.0312 -0.00195 0.0
          0.0299 -0.00195 0.0
          0.0286 -0.00195 0.0
          0.0273 -0.00195 0.0
          0.026 -0.00195 0.0
          0.0247 -0.00195 0.0
          0.0234 -0.00195 0.0
          0.0221 -0.00195 0.0
          0.0208 -0.00195 0.0
          0.0195 -0.00195 0.0
          0.0182 -0.00195 0.0
          0.0169 -0.00195 0.0
          0.0156 -0.00195 0.0
          0.0143 -0.00195 0.0
          0.013 -0.00195 0.0
          0.0117 -0.00195 0.0
          0.0104 -0.00195 0.0
          0.0091 -0.00195 0.0
          0.0078 -0.00195 0.0
          0.0065 -0.00195 0.0
          0.0052 -0.00195 0.0
          0.0039 -0.00195 0.0
          0.0026 -0.00195 0.0
          0.0013 -0.00195 0.0
          0 -0.00195 0.0
          0.039 -0.00325 0.0
          0.0377 -0.00325 0.0
          0.0364 -0.00325 0.0
          0.0351 -0.00325 0.0
          0.0338 -0.00325 0.0
          0.0325 -0.00325 0.0
          0.0312 -0.00325 0.0
          0.0299 -0.00325 0.0
          0.0286 -0.00325 0.0
          0.0273 -0.00325 0.0
          0.026 -0.00325 0.0
          0.0247 -0.00325 0.0
          0.0234 -0.00325 0.0
          0.0221 -0.00325 0.0
          0.0208 -0.00325 0.0
          0.0195 -0.00325 0.0
          0.0182 -0.00325 0.0
          0.0169 -0.00325 0.0
          0.0156 -0.00325 0.0
          0.0143 -0.00325 0.0
          0.013 -0.00325 0.0
          0.0117 -0.00325 0.0
          0.0104 -0.00325 0.0
          0.0091 -0.00325 0.0
          0.0078 -0.00325 0.0
          0.0065 -0.00325 0.0
          0.0052 -0.00325 0.0
          0.0039 -0.00325 0.0
          0.0026 -0.00325 0.0
          0.0013 -0.00325 0.0
          0 -0.00325 0.0
          0.039 -0.00455 0.0
          0.0377 -0.00455 0.0
          0.0364 -0.00455 0.0
          0.0351 -0.00455 0.0
          0.0338 -0.00455 0.0
          0.0325 -0.00455 0.0
          0.0312 -0.00455 0.0
          0.0299 -0.00455 0.0
          0.0286 -0.00455 0.0
          0.0273 -0.00455 0.0
          0.026 -0.00455 0.0
          0.0247 -0.00455 0.0
          0.0234 -0.00455 0.0
          0.0221 -0.00455 0.0
          0.0208 -0.00455 0.0
          0.0195 -0.00455 0.0
          0.0182 -0.00455 0.0
          0.0169 -0.00455 0.0
          0.0156 -0.00455 0.0
          0.0143 -0.00455 0.0
          0.013 -0.00455 0.0
          0.0117 -0.00455 0.0
          0.0104 -0.00455 0.0
          0.0091 -0.00455 0.0
          0.0078 -0.00455 0.0
          0.0065 -0.00455 0.0
          0.0052 -0.00455 0.0
          0.0039 -0.00455 0.0
          0.0026 -0.00455 0.0
          0.0013 -0.00455 0.0
          0 -0.00455 0.0
          0.039 -0.00585 0.0
          0.0377 -0.00585 0.0
          0.0364 -0.00585 0.0
          0.0351 -0.00585 0.0
          0.0338 -0.00585 0.0
          0.0325 -0.00585 0.0
          0.0312 -0.00585 0.0
          0.0299 -0.00585 0.0
          0.0286 -0.00585 0.0
          0.0273 -0.00585 0.0
          0.026 -0.00585 0.0
          0.0247 -0.00585 0.0
          0.0234 -0.00585 0.0
          0.0221 -0.00585 0.0
          0.0208 -0.00585 0.0
          0.0195 -0.00585 0.0
          0.0182 -0.00585 0.0
          0.0169 -0.00585 0.0
          0.0156 -0.00585 0.0
          0.0143 -0.00585 0.0
          0.013 -0.00585 0.0
          0.0117 -0.00585 0.0
          0.0104 -0.00585 0.0
          0.0091 -0.00585 0.0
          0.0078 -0.00585 0.0
          0.0065 -0.00585 0.0
          0.0052 -0.00585 0.0
          0.0039 -0.00585 0.0
          0.0026 -0.00585 0.0
          0.0013 -0.00585 0.0
          0 -0.00585 0.0
          0.039 -0.00715 0.0
          0.0377 -0.00715 0.0
          0.0364 -0.00715 0.0
          0.0351 -0.00715 0.0
          0.0338 -0.00715 0.0
          0.0325 -0.00715 0.0
          0.0312 -0.00715 0.0
          0.0299 -0.00715 0.0
          0.0286 -0.00715 0.0
          0.0273 -0.00715 0.0
          0.026 -0.00715 0.0
          0.0247 -0.00715 0.0
          0.0234 -0.00715 0.0
          0.0221 -0.00715 0.0
          0.0208 -0.00715 0.0
          0.0195 -0.00715 0.0
          0.0182 -0.00715 0.0
          0.0169 -0.00715 0.0
          0.0156 -0.00715 0.0
          0.0143 -0.00715 0.0
          0.013 -0.00715 0.0
          0.0117 -0.00715 0.0
          0.0104 -0.00715 0.0
          0.0091 -0.00715 0.0
          0.0078 -0.00715 0.0
          0.0065 -0.00715 0.0
          0.0052 -0.00715 0.0
          0.0039 -0.00715 0.0
          0.0026 -0.00715 0.0
          0.0013 -0.00715 0.0
          0 -0.00715 0.0
          0.039 -0.00845 0.0
          0.0377 -0.00845 0.0
          0.0364 -0.00845 0.0
          0.0351 -0.00845 0.0
          0.0338 -0.00845 0.0
          0.0325 -0.00845 0.0
          0.0312 -0.00845 0.0
          0.0299 -0.00845 0.0
          0.0286 -0.00845 0.0
          0.0273 -0.00845 0.0
          0.026 -0.00845 0.0
          0.0247 -0.00845 0.0
          0.0234 -0.00845 0.0
          0.0221 -0.00845 0.0
          0.0208 -0.00845 0.0
          0.0195 -0.00845 0.0
          0.0182 -0.00845 0.0
          0.0169 -0.00845 0.0
          0.0156 -0.00845 0.0
          0.0143 -0.00845 0.0
          0.013 -0.00845 0.0
          0.0117 -0.00845 0.0
          0.0104 -0.00845 0.0
          0.0091 -0.00845 0.0
          0.0078 -0.00845 0.0
          0.0065 -0.00845 0.0
          0.0052 -0.00845 0.0
          0.0039 -0.00845 0.0
          0.0026 -0.00845 0.0
          0.0013 -0.00845 0.0
          0 -0.00845 0.0
          0.039 -0.00975 0.0
          0.0377 -0.00975 0.0
          0.0364 -0.00975 0.0
          0.0351 -0.00975 0.0
          0.0338 -0.00975 0.0
          0.0325 -0.00975 0.0
          0.0312 -0.00975 0.0
          0.0299 -0.00975 0.0
          0.0286 -0.00975 0.0
          0.0273 -0.00975 0.0
          0.026 -0.00975 0.0
          0.0247 -0.00975 0.0
          0.0234 -0.00975 0.0
          0.0221 -0.00975 0.0
          0.0208 -0.00975 0.0
          0.0195 -0.00975 0.0
          0.0182 -0.00975 0.0
          0.0169 -0.00975 0.0
          0.0156 -0.00975 0.0
          0.0143 -0.00975 0.0
          0.013 -0.00975 0.0
          0.0117 -0.00975 0.0
          0.0104 -0.00975 0.0
          0.0091 -0.00975 0.0
          0.0078 -0.00975 0.0
          0.0065 -0.00975 0.0
          0.0052 -0.00975 0.0
          0.0039 -0.00975 0.0
          0.0026 -0.00975 0.0
          0.0013 -0.00975 0.0
          0 -0.00975 0.0
          0.039 -0.01105 0.0
          0.0377 -0.01105 0.0
          0.0364 -0.01105 0.0
          0.0351 -0.01105 0.0
          0.0338 -0.01105 0.0
          0.0325 -0.01105 0.0
          0.0312 -0.01105 0.0
          0.0299 -0.01105 0.0
          0.0286 -0.01105 0.0
          0.0273 -0.01105 0.0
          0.026 -0.01105 0.0
          0.0247 -0.01105 0.0
          0.0234 -0.01105 0.0
          0.0221 -0.01105 0.0
          0.0208 -0.01105 0.0
          0.0195 -0.01105 0.0
          0.0182 -0.01105 0.0
          0.0169 -0.01105 0.0
          0.0156 -0.01105 0.0
          0.0143 -0.01105 0.0
          0.013 -0.01105 0.0
          0.0117 -0.01105 0.0
          0.0104 -0.01105 0.0
          0.0091 -0.01105 0.0
          0.0078 -0.01105 0.0
          0.0065 -0.01105 0.0
          0.0052 -0.01105 0.0
          0.0039 -0.01105 0.0
          0.0026 -0.01105 0.0
          0.0013 -0.01105 0.0
          0 -0.01105 0.0
          0.039 -0.01235 0.0
          0.0377 -0.01235 0.0
          0.0364 -0.01235 0.0
          0.0351 -0.01235 0.0
          0.0338 -0.01235 0.0
          0.0325 -0.01235 0.0
          0.0312 -0.01235 0.0
          0.0299 -0.01235 0.0
          0.0286 -0.01235 0.0
          0.0273 -0.01235 0.0
          0.026 -0.01235 0.0
          0.0247 -0.01235 0.0
          0.0234 -0.01235 0.0
          0.0221 -0.01235 0.0
          0.0208 -0.01235 0.0
          0.0195 -0.01235 0.0
          0.0182 -0.01235 0.0
          0.0169 -0.01235 0.0
          0.0156 -0.01235 0.0
          0.0143 -0.01235 0.0
          0.013 -0.01235 0.0
          0.0117 -0.01235 0.0
          0.0104 -0.01235 0.0
          0.0091 -0.01235 0.0
          0.0078 -0.01235 0.0
          0.0065 -0.01235 0.0
          0.0052 -0.01235 0.0
          0.0039 -0.01235 0.0
          0.0026 -0.01235 0.0
          0.0013 -0.01235 0.0
          0 -0.01235 0.0
          0.039 -0.01365 0.0
          0.0377 -0.01365 0.0
          0.0364 -0.01365 0.0
          0.0351 -0.01365 0.0
          0.0338 -0.01365 0.0
          0.0325 -0.01365 0.0
          0.0312 -0.01365 0.0
          0.0299 -0.01365 0.0
          0.0286 -0.01365 0.0
          0.0273 -0.01365 0.0
          0.026 -0.01365 0.0
          0.0247 -0.01365 0.0
          0.0234 -0.01365 0.0
          0.0221 -0.01365 0.0
          0.0208 -0.01365 0.0
          0.0195 -0.01365 0.0
          0.0182 -0.01365 0.0
          0.0169 -0.01365 0.0
          0.0156 -0.01365 0.0
          0.0143 -0.01365 0.0
          0.013 -0.01365 0.0
          0.0117 -0.01365 0.0
          0.0104 -0.01365 0.0
          0.0091 -0.01365 0.0
          0.0078 -0.01365 0.0
          0.0065 -0.01365 0.0
          0.0052 -0.01365 0.0
          0.0039 -0.01365 0.0
          0.0026 -0.01365 0.0
          0.0013 -0.01365 0.0
          0 -0.01365 0.0
          0.039 -0.01495 0.0
          0.0377 -0.01495 0.0
          0.0364 -0.01495 0.0
          0.0351 -0.01495 0.0
          0.0338 -0.01495 0.0
          0.0325 -0.01495 0.0
          0.0312 -0.01495 0.0
          0.0299 -0.01495 0.0
          0.0286 -0.01495 0.0
          0.0273 -0.01495 0.0
          0.026 -0.01495 0.0
          0.0247 -0.01495 0.0
          0.0234 -0.01495 0.0
          0.0221 -0.01495 0.0