<?xml version="1.0"?>
<VTKFile type="UnstructuredGrid" version="0.1" byte_order="LittleEndian">
  <UnstructuredGrid>
    <Piece NumberOfPoints="961" NumberOfCells="900">
      <PointData Scalars="Temperature">
        <DataArray type="Float32" Name="Temperature" format="ascii">
          21.0033
          21.0553
          21.1093
          21.1631
          21.2086
          21.2403
          21.2564
          21.262
          21.2595
          21.2498
          21.2308
          21.2058
          21.1804
          21.1616
          21.152
          21.1521
          21.162
          21.181
          21.2067
          21.2319
          21.2511
          21.2609
          21.2636
          21.2586
          21.2439
          21.215
          21.1742
          21.1271
          21.0817
          21.0404
          21.0024
          21.0537
          21.8907
          22.788
          23.6888
          24.474
          24.985
          25.2354
          25.3011
          25.2748
          25.1195
          24.8089
          24.3652
          23.9322
          23.6125
          23.4619
          23.4637
          23.6183
          23.9423
          24.3796
          24.8274
          25.1407
          25.298
          25.3269
          25.2679
          25.0381
          24.572
          23.8648
          23.0736
          22.3163
          21.6529
          21.0393
          21.0998
          22.6603
          24.3568
          26.3822
          28.0318
          29.0969
          29.3415
          29.4052
          29.3797
          29.2277
          28.53
          27.5476
          26.4899
          25.8985
          25.6271
          25.6306
          25.9092
          26.5088
          27.5764
          28.5671
          29.2703
          29.4242
          29.4522
          29.3951
          29.1706
          28.1868
          26.6877
          24.8855
          23.4541
          22.2166
          21.0733
          21.1381
          23.2957
          25.6617
          28.4912
          33.5724
          33.573
          33.5733
          33.5734
          33.5734
          33.5733
          33.5729
          30.0352
          28.6551
          27.8805
          27.5351
          27.5399
          27.8954
          28.6813
          30.0753
          33.6384
          33.6388
          33.6389
          33.6389
          33.6388
          33.6386
          33.638
          28.8939
          26.3947
          24.4042
          22.6922
          21.102
          21.1659
          23.7521
          26.534
          29.8274
          33.5736
          33.5738
          33.5741
          33.5742
          33.5742
          33.5742
          33.574
          31.6674
          30.2569
          29.4747
          29.1161
          29.122
          29.4926
          30.288
          31.7145
          33.6396
          33.6397
          33.6398
          33.6398
          33.6396
          33.6394
          33.6392
          30.3
          27.4298
          25.1097
          23.0556
          21.1242
          21.1835
          24.029
          27.0129
          30.2094
          33.5756
          33.5758
          33.576
          33.5761
          33.5762
          33.5761
          33.5761
          32.344
          31.3386
          30.6719
          30.3545
          30.361
          30.6916
          31.3726
          32.3933
          33.6416
          33.6417
          33.6417
          33.6417
          33.6416
          33.6414
          33.6412
          30.7432
          28.0317
          25.5694
          23.3057
          21.1397
          21.1929
          24.1735
          27.2211
          30.3644
          33.5786
          33.5788
          33.579
          33.5791
          33.5791
          33.5792
          33.5791
          32.7427
          32.0324
          31.5328
          31.2816
          31.2885
          31.5536
          32.0676
          32.7929
          33.6446
          33.6447
          33.6447
          33.6446
          33.6445
          33.6444
          33.6442
          30.9437
          28.3285
          25.8387
          23.4616
          21.1496
          21.1975
          24.2405
          27.3147
          30.4324
          33.5827
          33.5829
          33.583
          33.5831
          33.5832
          33.5832
          33.5832
          33.0023
          32.5014
          32.1403
          31.9553
          31.9624
          32.1616
          32.5372
          33.0528
          33.6487
          33.6487
          33.6487
          33.6486
          33.6486
          33.6484
          33.6483
          31.0433
          28.4819
          25.9858
          23.5516
          21.1554
          21.1996
          24.2714
          27.3578
          30.4647
          33.5878
          33.5879
          33.5881
          33.5882
          33.5883
          33.5883
          33.5883
          33.1801
          32.8266
          32.5694
          32.4374
          32.4445
          32.591
          32.8626
          33.2309
          33.6537
          33.6537
          33.6537
          33.6537
          33.6536
          33.6535
          33.6533
          31.0964
          28.5633
          26.0654
          23.6015
          21.1586
          21.2006
          24.2861
          27.3788
          30.4818
          33.5939
          33.594
          33.5942
          33.5943
          33.5944
          33.5944
          33.5944
          33.3056
          33.0555
          32.8735
          32.7807
          32.7879
          32.8952
          33.0917
          33.3564
          33.6598
          33.6598
          33.6598
          33.6598
          33.6597
          33.6596
          33.6594
          31.1266
          28.608
          26.109
          23.6288
          21.1604
          21.2011
          24.2938
          27.3903
          30.4927
          33.601
          33.6012
          33.6013
          33.6014
          33.6015
          33.6015
          33.6015
          33.396
          33.2186
          33.09
          33.0254
          33.0327
          33.1118
          33.2548
          33.4468
          33.6669
          33.6669
          33.6669
          33.6669
          33.6668
          33.6667
          33.6665
          31.1456
          28.6339
          26.1337
          23.6442
          21.1614
          21.2014
          24.2986
          27.398
          30.5013
          33.6091
          33.6093
          33.6095
          33.6096
          33.6097
          33.6097
          33.6097
          33.4625
          33.3362
          33.2455
          33.2009
          33.2081
          33.2672
          33.3725
          33.5133
          33.6751
          33.6751
          33.675
          33.675
          33.6749
          33.6748
          33.6746
          31.1592
          28.6502
          26.1485
          23.6533
          21.162
          21.2017
          24.3021
          27.4043
          30.5094
          33.6183
          33.6185
          33.6187
          33.6188
          33.6189
          33.6189
          33.6189
          33.5127
          33.4224
          33.3584
          33.328
          33.3352
          33.3801
          33.4587
          33.5634
          33.6842
          33.6842
          33.6842
          33.6841
          33.684
          33.6839
          33.6838
          31.1703
          28.6619
          26.1585
          23.6592
          21.1624
          21.2019
          24.3053
          27.4102
          30.5176
          33.6285
          33.6287
          33.6289
          33.629
          33.6291
          33.6292
          33.6292
          33.5518
          33.487
          33.4418
          33.4214
          33.4286
          33.4635
          33.5232
          33.6026
          33.6944
          33.6944
          33.6944
          33.6943
          33.6942
          33.6941
          33.6939
          31.1807
          28.6717
          26.1663
          23.6637
          21.1627
          21.2021
          24.3086
          27.4163
          30.5263
          33.6398
          33.64
          33.6401
          33.6403
          33.6404
          33.6404
          33.6404
          33.5836
          33.5368
          33.5049
          33.4916
          33.4989
          33.5266
          33.573
          33.6343
          33.7057
          33.7056
          33.7056
          33.7055
          33.7054
          33.7053
          33.7051
          31.1912
          28.681
          26.1734
          23.6677
          21.1629
          21.2023
          24.3121
          27.4229
          30.5358
          33.652
          33.6522
          33.6524
          33.6525
          33.6527
          33.6527
          33.6528
          33.6106
          33.5767
          33.5544
          33.5462
          33.5534
          33.5761
          33.6128
          33.6612
          33.7179
          33.7179
          33.7178
          33.7177
          33.7176
          33.7174
          33.7173
          31.2026
          28.6909
          26.181
          23.6719
          21.1632
          21.2025
          24.316
          27.4303
          30.5463
          33.6653
          33.6655
          33.6657
          33.6658
          33.666
          33.6661
          33.6661
          33.6346
          33.6101
          33.5948
          33.5903
          33.5975
          33.6165
          33.6463
          33.6852
          33.7312
          33.7312
          33.7311
          33.731
          33.7308
          33.7306
          33.7305
          31.2154
          28.7025
          26.19
          23.6771
          21.1635
          21.2028
          24.3207
          27.4389
          30.5579
          33.6795
          33.6797
          33.6799
          33.6802
          33.6804
          33.6805
          33.6806
          33.6571
          33.6397
          33.6296
          33.6279
          33.6351
          33.6513
          33.6758
          33.7077
          33.7456
          33.7455
          33.7454
          33.7452
          33.745
          33.7448
          33.7446
          31.2306
          28.7174
          26.2022
          23.6841
          21.164
          21.2032
          24.327
          27.4496
          30.5715
          33.6947
          33.6949
          33.6952
          33.6955
          33.6958
          33.696
          33.6961
          33.6791
          33.6673
          33.6614
          33.6619
          33.6691
          33.683
          33.7034
          33.7296
          33.761
          33.761
          33.7608
          33.7605
          33.7602
          33.7599
          33.7597
          31.2499
          28.7383
          26.2203
          23.695
          21.1646
          21.2039
          24.3362
          27.4647
          30.5884
          33.7108
          33.711
          33.7114
          33.7119
          33.7124
          33.7127
          33.7128
          33.7014
          33.6945
          33.6921
          33.6945
          33.7017
          33.7137
          33.7305
          33.7518
          33.7776
          33.7775
          33.7772
          33.7768
          33.7764
          33.776
          33.7758
          31.2763
          28.7701
          26.2493
          23.7127
          21.1659
          21.2045
          24.3523
          27.4889
          30.6121
          33.7277
          33.728
          33.7286
          33.7293
          33.73
          33.7305
          33.7307
          33.7248
          33.7226
          33.7237
          33.7279
          33.7351
          33.7452
          33.7585
          33.7751
          33.7954
          33.7953
          33.7948
          33.7941
          33.7934
          33.7929
          33.7926
          31.3155
          28.8222
          26.2988
          23.7438
          21.1675
          21.2084
          24.3824
          27.5335
          30.65
          33.7453
          33.7457
          33.7466
          33.7478
          33.7489
          33.7497
          33.75
          33.7501
          33.7529
          33.7577
          33.7638
          33.7709
          33.7792
          33.7888
          33.8003
          33.8146
          33.8143
          33.8135
          33.8125
          33.8113
          33.8105
          33.8101
          31.3781
          28.9123
          26.3875
          23.7994
          21.173
          21.2047
          24.4488
          27.6222
          30.7197
          33.7633
          33.7639
          33.7653
          33.7672
          33.7691
          33.7705
          33.771
          33.7782
          33.787
          33.7959
          33.8042
          33.8113
          33.8174
          33.8227
          33.8283
          33.8355
          33.835
          33.8336
          33.8318
          33.83
          33.8286
          33.828
          31.4833
          29.0739
          26.5495
          23.9069
          21.1719
          21.2498
          24.577
          27.8168
          30.8579
          33.7813
          33.7822
          33.7845
          33.7876
          33.7908
          33.7932
          33.7941
          33.8104
          33.8266
          33.8406
          33.8514
          33.8585
          33.8619
          33.8622
          33.8603
          33.8584
          33.8575
          33.8552
          33.8521
          33.8491
          33.8469
          33.846
          31.6652
          29.3661
          26.8595
          24.0977
          21.221
          21.1136
          24.9438
          28.221
          31.1528
          33.7987
          33.8001
          33.8037
          33.8089
          33.8143
          33.8186
          33.8202
          33.8487
          33.8742
          33.8942
          33.9078
          33.9149
          33.9154
          33.9096
          33.8984
          33.8843
          33.8827
          33.8786
          33.8733
          33.8683
          33.8647
          33.8634
          31.9723
          29.9024
          27.4332
          24.5536
          21.0896
          21.871
          25.484
          29.2218
          31.7235
          33.8145
          33.8166
          33.8223
          33.8306
          33.8401
          33.8479
          33.8511
          33.8964
          33.9334
          33.9598
          33.9764
          33.9834
          33.9809
          33.9684
          33.9456
          33.9148
          33.9117
          33.9042
          33.895
          33.8868
          33.8812
          33.8791
          32.4508
          30.8193
          28.6647
          25.2109
          21.8569
          18.8903
          28.4944
          31.1217
          32.6439
          33.8272
          33.8303
          33.8392
          33.8518
          33.8672
          33.8844
          33.8902
          33.9608
          34.0088
          34.0407
          34.0598
          34.0668
          34.0617
          34.0435
          34.0091
          33.9531
          33.9475
          33.9314
          33.9164
          33.9038
          33.8948
          33.8917
          33.1072
          32.1856
          30.8508
          28.3713
          18.8731
          33.7757
          33.7933
          33.8066
          33.8193
          33.8318
          33.8403
          33.8534
          33.871
          33.8936
          33.9216
          33.966
          34.0529
          34.1037
          34.1395
          34.1607
          34.1677
          34.1605
          34.1384
          34.1003
          34.025
          33.9847
          33.9583
          33.9361
          33.9183
          33.9048
          33.8958
          33.8821
          33.8688
          33.8558
          33.8423
          33.8246
          33.7827
          33.795
          33.8073
          33.8198
          33.8327
          33.847
          33.8641
          33.8864
          33.9153
          33.9539
          34.0054
          34.0612
          34.1118
          34.1471
          34.1683
          34.1753
          34.1683
          34.1469
          34.1097
          34.0645
          34.019
          33.982
          33.9525
          33.9295
          33.9115
          33.8963
          33.8825
          33.8691
          33.8564
          33.844
          33.8317
          33.7905
          33.7983
          33.8085
          33.8207
          33.8346
          33.8509
          33.8708
          33.8963
          33.9295
          33.9732
          34.0296
          34.0879
          34.1352
          34.1699
          34.1909
          34.198
          34.1913
          34.1709
          34.1385
          34.0961
          34.0459
          33.9987
          33.9634
          33.9366
          33.9155
          33.8981
          33.8831
          33.8696
          33.8575
          33.8473
          33.8396
          33.7963
          33.7996
          33.8091
          33.8211
          33.8353
          33.8523
          33.8731
          33.8997
          33.9343
          33.9796
          34.0411
          34.1036
          34.1508
          34.185
          34.2059
          34.213
          34.2065
          34.1869
          34.1553
          34.1132
          34.058
          34.0048
          33.9673
          33.939
          33.9169
          33.8989
          33.8834
          33.8699
          33.8581
          33.8486
          33.8453
        </DataArray>
      </PointData>
      <CellData>
      </CellData>
      <Points>
        <DataArray type="Float32" NumberOfComponents="3" format="ascii">
          0.039 0.00195 0.0
          0.0377 0.00195 0.0
          0.0364 0.00195 0.0
          0.0351 0.00195 0.0
          0.0338 0.00195 0.0
          0.0325 0.00195 0.0
          0.0312 0.00195 0.0
          0.0299 0.00195 0.0
          0.0286 0.00195 0.0
          0.0273 0.00195 0.0
          0.026 0.00195 0.0
          0.0247 0.00195 0.0
          0.0234 0.00195 0.0
          0.0221 0.00195 0.0
          0.0208 0.00195 0.0
          0.0195 0.00195 0.0
          0.0182 0.00195 0.0
          0.0169 0.00195 0.0
          0.0156 0.00195 0.0
          0.0143 0.00195 0.0
          0.013 0.00195 0.0
          0.0117 0.00195 0.0
          0.0104 0.00195 0.0
          0.0091 0.00195 0.0
          0.0078 0.00195 0.0
          0.0065 0.00195 0.0
          0.0052 0.00195 0.0
          0.0039 0.00195 0.0
          0.0026 0.00195 0.0
          0.0013 0.00195 0.0
          0 0.00195 0.0
          0.039 0.00065 0.0
          0.0377 0.00065 0.0
          0.0364 0.00065 0.0
          0.0351 0.00065 0.0
          0.0338 0.00065 0.0
          0.0325 0.00065 0.0
          0.0312 0.00065 0.0
          0.0299 0.00065 0.0
          0.0286 0.00065 0.0
          0.0273 0.00065 0.0
          0.026 0.00065 0.0
          0.0247 0.00065 0.0
          0.0234 0.00065 0.0
          0.0221 0.00065 0.0
          0.0208 0.00065 0.0
          0.0195 0.00065 0.0
          0.0182 0.00065 0.0
          0.0169 0.00065 0.0
          0.0156 0.00065 0.0
          0.0143 0.00065 0.0
          0.013 0.00065 0.0
          0.0117 0.00065 0.0
          0.0104 0.00065 0.0
          0.0091 0.00065 0.0
          0.0078 0.00065 0.0
          0.0065 0.00065 0.0
          0.0052 0.00065 0.0
          0.0039 0.00065 0.0
          0.0026 0.00065 0.0
          0.0013 0.00065 0.0
          0 0.00065 0.0
          0.039 -0.00065 0.0
          0.0377 -0.00065 0.0
          0.0364 -0.00065 0.0
          0.0351 -0.00065 0.0
          0.0338 -0.00065 0.0
          0.0325 -0.00065 0.0
          0.0312 -0.00065 0.0
          0.0299 -0.00065 0.0
          0.0286 -0.00065 0.0
          0.0273 -0.00065 0.0
          0.026 -0.00065 0.0
          0.0247 -0.00065 0.0
          0.0234 -0.00065 0.0
          0.0221 -0.00065 0.0
          0.0208 -0.00065 0.0
          0.0195 -0.00065 0.0
          0.0182 -0.00065 0.0
          0.0169 -0.00065 0.0
          0.0156 -0.00065 0.0
          0.0143 -0.00065 0.0
          0.013 -0.00065 0.0
          0.0117 -0.00065 0.0
          0.0104 -0.00065 0.0
          0.0091 -0.00065 0.0
          0.0078 -0.00065 0.0
          0.0065 -0.00065 0.0
          0.0052 -0.00065 0.0
          0.0039 -0.00065 0.0
          0.0026 -0.00065 0.0
          0.0013 -0.00065 0.0
          0 -0.00065 0.0
          0.039 -0.00195 0.0
          0.0377 -0.00195 0.0
          0.0364 -0.00195 0.0
          0.0351 -0.00195 0.0
          0.0338 -0.00195 0.0
          0.0325 -0.00195 0.0
          0.0312 -0.00195 0.0
          0.0299 -0.00195 0.0
          0.0286 -0.00195 0.0
          0.0273 -0.00195 0.0
          0.026 -0.00195 0.0
          0.0247 -0.00195 0.0
          0.0234 -0.00195 0.0
          0.0221 -0.00195 0.0
          0.0208 -0.00195 0.0
          0.0195 -0.00195 0.0
          0.0182 -0.00195 0.0
          0.0169 -0.00195 0.0
          0.0156 -0.00195 0.0
          0.0143 -0.00195 0.0
          0.013 -0.00195 0.0
          0.0117 -0.00195 0.0
          0.0104 -0.00195 0.0
          0.0091 -0.00195 0.0
          0.0078 -0.00195 0.0
          0.0065 -0.00195 0.0
          0.0052 -0.00195 0.0
          0.0039 -0.00195 0.0
          0.0026 -0.00195 0.0
          0.0013 -0.00195 0.0
          0 -0.00195 0.0
          0.039 -0.00325 0.0
          0.0377 -0.00325 0.0
          0.0364 -0.00325 0.0
          0.0351 -0.00325 0.0
          0.0338 -0.00325 0.0
          0.0325 -0.00325 0.0
          0.0312 -0.00325 0.0
          0.0299 -0.00325 0.0
          0.0286 -0.00325 0.0
          0.0273 -0.00325 0.0
          0.026 -0.00325 0.0
          0.0247 -0.00325 0.0
          0.0234 -0.00325 0.0
          0.0221 -0.00325 0.0
          0.0208 -0.00325 0.0
          0.0195 -0.00325 0.0
          0.0182 -0.00325 0.0
          0.0169 -0.00325 0.0
          0.0156 -0.00325 0.0
          0.0143 -0.00325 0.0
          0.013 -0.00325 0.0
          0.0117 -0.00325 0.0
          0.0104 -0.00325 0.0
          0.0091 -0.00325 0.0
          0.0078 -0.00325 0.0
          0.0065 -0.00325 0.0
          0.0052 -0.00325 0.0
          0.0039 -0.00325 0.0
          0.0026 -0.00325 0.0
          0.0013 -0.00325 0.0
          0 -0.00325 0.0
          0.039 -0.00455 0.0
          0.0377 -0.00455 0.0
          0.0364 -0.00455 0.0
          0.0351 -0.00455 0.0
          0.0338 -0.00455 0.0
          0.0325 -0.00455 0.0
          0.0312 -0.00455 0.0
          0.0299 -0.00455 0.0
          0.0286 -0.00455 0.0
          0.0273 -0.00455 0.0
          0.026 -0.00455 0.0
          0.0247 -0.00455 0.0
          0.0234 -0.00455 0.0
          0.0221 -0.00455 0.0
          0.0208 -0.00455 0.0
          0.0195 -0.00455 0.0
          0.0182 -0.00455 0.0
          0.0169 -0.00455 0.0
          0.0156 -0.00455 0.0
          0.0143 -0.00455 0.0
          0.013 -0.00455 0.0
          0.0117 -0.00455 0.0
          0.0104 -0.00455 0.0
          0.0091 -0.00455 0.0
          0.0078 -0.00455 0.0
          0.0065 -0.00455 0.0
          0.0052 -0.00455 0.0
          0.0039 -0.00455 0.0
          0.0026 -0.00455 0.0
          0.0013 -0.00455 0.0
          0 -0.00455 0.0
          0.039 -0.00585 0.0
          0.0377 -0.00585 0.0
          0.0364 -0.00585 0.0
          0.0351 -0.00585 0.0
          0.0338 -0.00585 0.0
          0.0325 -0.00585 0.0
          0.0312 -0.00585 0.0
          0.0299 -0.00585 0.0
          0.0286 -0.00585 0.0
          0.0273 -0.00585 0.0
          0.026 -0.00585 0.0
          0.0247 -0.00585 0.0
          0.0234 -0.00585 0.0
          0.0221 -0.00585 0.0
          0.0208 -0.00585 0.0
          0.0195 -0.00585 0.0
          0.0182 -0.00585 0.0
          0.0169 -0.00585 0.0
          0.0156 -0.00585 0.0
          0.0143 -0.00585 0.0
          0.013 -0.00585 0.0
          0.0117 -0.00585 0.0
          0.0104 -0.00585 0.0
          0.0091 -0.00585 0.0
          0.0078 -0.00585 0.0
          0.0065 -0.00585 0.0
          0.0052 -0.00585 0.0
          0.0039 -0.00585 0.0
          0.0026 -0.00585 0.0
          0.0013 -0.00585 0.0
          0 -0.00585 0.0
          0.039 -0.00715 0.0
          0.0377 -0.00715 0.0
          0.0364 -0.00715 0.0
          0.0351 -0.00715 0.0
          0.0338 -0.00715 0.0
          0.0325 -0.00715 0.0
          0.0312 -0.00715 0.0
          0.0299 -0.00715 0.0
          0.0286 -0.00715 0.0
          0.0273 -0.00715 0.0
          0.026 -0.00715 0.0
          0.0247 -0.00715 0.0
          0.0234 -0.00715 0.0
          0.0221 -0.00715 0.0
          0.0208 -0.00715 0.0
          0.0195 -0.00715 0.0
          0.0182 -0.00715 0.0
          0.0169 -0.00715 0.0
          0.0156 -0.00715 0.0
          0.0143 -0.00715 0.0
          0.013 -0.00715 0.0
          0.0117 -0.00715 0.0
          0.0104 -0.00715 0.0
          0.0091 -0.00715 0.0
          0.0078 -0.00715 0.0
          0.0065 -0.00715 0.0
          0.0052 -0.00715 0.0
          0.0039 -0.00715 0.0
          0.0026 -0.00715 0.0
          0.0013 -0.00715 0.0
          0 -0.00715 0.0
          0.039 -0.00845 0.0
          0.0377 -0.00845 0.0
          0.0364 -0.00845 0.0
          0.0351 -0.00845 0.0
          0.0338 -0.00845 0.0
          0.0325 -0.00845 0.0
          0.0312 -0.00845 0.0
          0.0299 -0.00845 0.0
          0.0286 -0.00845 0.0
          0.0273 -0.00845 0.0
          0.026 -0.00845 0.0
          0.0247 -0.00845 0.0
          0.0234 -0.00845 0.0
          0.0221 -0.00845 0.0
          0.0208 -0.00845 0.0
          0.0195 -0.00845 0.0
          0.0182 -0.00845 0.0
          0.0169 -0.00845 0.0
          0.0156 -0.00845 0.0
          0.0143 -0.00845 0.0
          0.013 -0.00845 0.0
          0.0117 -0.00845 0.0
          0.0104 -0.00845 0.0
          0.0091 -0.00845 0.0
          0.0078 -0.00845 0.0
          0.0065 -0.00845 0.0
          0.0052 -0.00845 0.0
          0.0039 -0.00845 0.0
          0.0026 -0.00845 0.0
          0.0013 -0.00845 0.0
          0 -0.00845 0.0
          0.039 -0.00975 0.0
          0.0377 -0.00975 0.0
          0.0364 -0.00975 0.0
          0.0351 -0.00975 0.0
          0.0338 -0.00975 0.0
          0.0325 -0.00975 0.0
          0.0312 -0.00975 0.0
          0.0299 -0.00975 0.0
          0.0286 -0.00975 0.0
          0.0273 -0.00975 0.0
          0.026 -0.00975 0.0
          0.0247 -0.00975 0.0
          0.0234 -0.00975 0.0
          0.0221 -0.00975 0.0
          0.0208 -0.00975 0.0
          0.0195 -0.00975 0.0
          0.0182 -0.00975 0.0
          0.0169 -0.00975 0.0
          0.0156 -0.00975 0.0
          0.0143 -0.00975 0.0
          0.013 -0.00975 0.0
          0.0117 -0.00975 0.0
          0.0104 -0.00975 0.0
          0.0091 -0.00975 0.0
          0.0078 -0.00975 0.0
          0.0065 -0.00975 0.0
          0.0052 -0.00975 0.0
          0.0039 -0.00975 0.0
          0.0026 -0.00975 0.0
          0.0013 -0.00975 0.0
          0 -0.00975 0.0
          0.039 -0.01105 0.0
          0.0377 -0.01105 0.0
          0.0364 -0.01105 0.0
          0.0351 -0.01105 0.0
          0.0338 -0.01105 0.0
          0.0325 -0.01105 0.0
          0.0312 -0.01105 0.0
          0.0299 -0.01105 0.0
          0.0286 -0.01105 0.0
          0.0273 -0.01105 0.0
          0.026 -0.01105 0.0
          0.0247 -0.01105 0.0
          0.0234 -0.01105 0.0
          0.0221 -0.01105 0.0
          0.0208 -0.01105 0.0
          0.0195 -0.01105 0.0
          0.0182 -0.01105 0.0
          0.0169 -0.01105 0.0
          0.0156 -0.01105 0.0
          0.0143 -0.01105 0.0
          0.013 -0.01105 0.0
          0.0117 -0.01105 0.0
          0.0104 -0.01105 0.0
          0.0091 -0.01105 0.0
          0.0078 -0.01105 0.0
          0.0065 -0.01105 0.0
          0.0052 -0.01105 0.0
          0.0039 -0.01105 0.0
          0.0026 -0.01105 0.0
          0.0013 -0.01105 0.0
          0 -0.01105 0.0
          0.039 -0.01235 0.0
          0.0377 -0.01235 0.0
          0.0364 -0.01235 0.0
          0.0351 -0.01235 0.0
          0.0338 -0.01235 0.0
          0.0325 -0.01235 0.0
          0.0312 -0.01235 0.0
          0.0299 -0.01235 0.0
          0.0286 -0.01235 0.0
          0.0273 -0.01235 0.0
          0.026 -0.01235 0.0
          0.0247 -0.01235 0.0
          0.0234 -0.01235 0.0
          0.0221 -0.01235 0.0
          0.0208 -0.01235 0.0
          0.0195 -0.01235 0.0
          0.0182 -0.01235 0.0
          0.0169 -0.01235 0.0
          0.0156 -0.01235 0.0
          0.0143 -0.01235 0.0
          0.013 -0.01235 0.0
          0.0117 -0.01235 0.0
          0.0104 -0.01235 0.0
          0.0091 -0.01235 0.0
          0.0078 -0.01235 0.0
          0.0065 -0.01235 0.0
          0.0052 -0.01235 0.0
          0.0039 -0.01235 0.0
          0.0026 -0.01235 0.0
          0.0013 -0.01235 0.0
          0 -0.01235 0.0
          0.039 -0.01365 0.0
          0.0377 -0.01365 0.0
          0.0364 -0.01365 0.0
          0.0351 -0.01365 0.0
          0.0338 -0.01365 0.0
          0.0325 -0.01365 0.0
          0.0312 -0.01365 0.0
          0.0299 -0.01365 0.0
          0.0286 -0.01365 0.0
          0.0273 -0.01365 0.0
          0.026 -0.01365 0.0
          0.0247 -0.01365 0.0
          0.0234 -0.01365 0.0
          0.0221 -0.01365 0.0
          0.0208 -0.01365 0.0
          0.0195 -0.01365 0.0
          0.0182 -0.01365 0.0
          0.0169 -0.01365 0.0
          0.0156 -0.01365 0.0
          0.0143 -0.01365 0.0
          0.013 -0.01365 0.0
          0.0117 -0.01365 0.0
          0.0104 -0.01365 0.0
          0.0091 -0.01365 0.0
          0.0078 -0.01365 0.0
          0.0065 -0.01365 0.0
          0.0052 -0.01365 0.0
          0.0039 -0.01365 0.0
          0.0026 -0.01365 0.0
          0.0013 -0.01365 0.0
          0 -0.01365 0.0
          0.039 -0.01495 0.0
          0.0377 -0.01495 0.0
          0.0364 -0.01495 0.0
          0.0351 -0.01495 0.0
          0.0338 -0.01495 0.0
          0.0325 -0.01495 0.0
          0.0312 -0.01495 0.0
          0.0299 -0.01495 0.0
          0.0286 -0.01495 0.0
          0.0273 -0.01495 0.0
          0.026 -0.01495 0.0
          0.0247 -0.01495 0.0
          0.0234 -0.01495 0.0
          0.0221 -0.01495 0.0