<?xml version="1.0"?>
<VTKFile type="UnstructuredGrid" version="0.1" byte_order="LittleEndian">
  <UnstructuredGrid>
    <Piece NumberOfPoints="961" NumberOfCells="900">
      <PointData Scalars="Temperature">
        <DataArray type="Float32" Name="Temperature" format="ascii">
          21.0037
          21.0628
          21.124
          21.1849
          21.2366
          21.2726
          21.2909
          21.2971
          21.2943
          21.2833
          21.2618
          21.2334
          21.2046
          21.1834
          21.1725
          21.1726
          21.1837
          21.2053
          21.2343
          21.2629
          21.2846
          21.2958
          21.2988
          21.2931
          21.2765
          21.2437
          21.1974
          21.1441
          21.0926
          21.0458
          21.0028
          21.0609
          22.0103
          23.0281
          24.0498
          24.9404
          25.5199
          25.8039
          25.8785
          25.8487
          25.6726
          25.3204
          24.8172
          24.3262
          23.9637
          23.7927
          23.7946
          23.9695
          24.3364
          24.8318
          25.339
          25.694
          25.8723
          25.9049
          25.8381
          25.5776
          25.0493
          24.2476
          23.3508
          22.4923
          21.7402
          21.0446
          21.1132
          22.8833
          24.8076
          27.1048
          28.9756
          30.1836
          30.461
          30.5332
          30.5043
          30.332
          29.5409
          28.4269
          27.2276
          26.5568
          26.2488
          26.2523
          26.5677
          27.2467
          28.4561
          29.5784
          30.3751
          30.5494
          30.5811
          30.5164
          30.2619
          29.1468
          27.4477
          25.4049
          23.7823
          22.3793
          21.0831
          21.1566
          23.604
          26.2877
          29.4968
          35.2589
          35.2596
          35.2599
          35.2601
          35.2601
          35.26
          35.2595
          31.2484
          29.6836
          28.8052
          28.4131
          28.418
          28.8202
          29.71
          31.2889
          35.3257
          35.3262
          35.3263
          35.3263
          35.3261
          35.3259
          35.3252
          29.9485
          27.1158
          24.8594
          22.9185
          21.1157
          21.1882
          24.1217
          27.277
          31.0121
          35.2602
          35.2605
          35.2608
          35.2609
          35.261
          35.2609
          35.2608
          33.0995
          31.5005
          30.6134
          30.2064
          30.2123
          30.6315
          31.5319
          33.1471
          35.3269
          35.327
          35.3271
          35.3271
          35.327
          35.3268
          35.3265
          31.5422
          28.2891
          25.6592
          23.3304
          21.1408
          21.2081
          24.4357
          27.82
          31.4452
          35.2623
          35.2625
          35.2627
          35.2629
          35.2629
          35.2629
          35.2628
          33.8669
          32.7273
          31.9713
          31.611
          31.6176
          31.9912
          32.7615
          33.9166
          35.329
          35.329
          35.3291
          35.329
          35.3289
          35.3288
          35.3286
          32.0445
          28.9713
          26.1802
          23.614
          21.1584
          21.2188
          24.5995
          28.056
          31.6207
          35.2653
          35.2656
          35.2657
          35.2658
          35.2659
          35.2659
          35.2659
          34.3187
          33.514
          32.9475
          32.6624
          32.6693
          32.9685
          33.5495
          34.3694
          35.332
          35.332
          35.3321
          35.332
          35.3319
          35.3318
          35.3316
          32.2714
          29.3075
          26.4854
          23.7906
          21.1696
          21.224
          24.6754
          28.1619
          31.6974
          35.2694
          35.2696
          35.2697
          35.2699
          35.2699
          35.2699
          35.2699
          34.6126
          34.0455
          33.6362
          33.4261
          33.4333
          33.6577
          34.0817
          34.6637
          35.336
          35.3361
          35.3361
          35.336
          35.3359
          35.3358
          35.3356
          32.3839
          29.4811
          26.6518
          23.8926
          21.1761
          21.2264
          24.7102
          28.2104
          31.7335
          35.2744
          35.2746
          35.2748
          35.2749
          35.275
          35.275
          35.275
          34.8137
          34.4137
          34.1224
          33.9723
          33.9796
          34.1442
          34.4501
          34.865
          35.3411
          35.3411
          35.3411
          35.341
          35.3409
          35.3408
          35.3406
          32.4435
          29.573
          26.7419
          23.9489
          21.1798
          21.2275
          24.7267
          28.2338
          31.7523
          35.2804
          35.2807
          35.2808
          35.2809
          35.281
          35.2811
          35.2811
          34.9552
          34.6726
          34.4665
          34.361
          34.3683
          34.4884
          34.7091
          35.0065
          35.3471
          35.3471
          35.3471
          35.347
          35.3469
          35.3468
          35.3466
          32.4772
          29.6231
          26.7909
          23.9798
          21.1818
          21.2281
          24.7352
          28.2464
          31.7639
          35.2875
          35.2877
          35.2879
          35.288
          35.2881
          35.2881
          35.2881
          35.0567
          34.8566
          34.7112
          34.6376
          34.645
          34.7331
          34.8932
          35.108
          35.3541
          35.3541
          35.3541
          35.354
          35.3539
          35.3538
          35.3536
          32.4979
          29.6518
          26.8185
          23.997
          21.1829
          21.2284
          24.7402
          28.2545
          31.7727
          35.2956
          35.2958
          35.2959
          35.2961
          35.2962
          35.2962
          35.2962
          35.131
          34.9889
          34.8863
          34.8355
          34.8429
          34.9083
          35.0255
          35.1822
          35.3622
          35.3622
          35.3621
          35.3621
          35.362
          35.3618
          35.3617
          32.5123
          29.6696
          26.8348
          24.0071
          21.1836
          21.2286
          24.7439
          28.2609
          31.7808
          35.3046
          35.3048
          35.305
          35.3051
          35.3052
          35.3053
          35.3053
          35.1866
          35.0853
          35.013
          34.9783
          34.9856
          35.035
          35.1219
          35.2378
          35.3712
          35.3712
          35.3712
          35.3711
          35.371
          35.3708
          35.3707
          32.5238
          29.6821
          26.8456
          24.0135
          21.184
          21.2288
          24.7471
          28.2668
          31.789
          35.3147
          35.3149
          35.3151
          35.3152
          35.3153
          35.3154
          35.3154
          35.2294
          35.157
          35.1061
          35.0827
          35.09
          35.128
          35.1936
          35.2807
          35.3813
          35.3813
          35.3812
          35.3811
          35.381
          35.3809
          35.3807
          32.5344
          29.6923
          26.8538
          24.0183
          21.1843
          21.229
          24.7504
          28.2729
          31.7977
          35.3258
          35.326
          35.3262
          35.3263
          35.3264
          35.3265
          35.3265
          35.2638
          35.2117
          35.176
          35.1607
          35.168
          35.1979
          35.2483
          35.3149
          35.3923
          35.3923
          35.3922
          35.3922
          35.392
          35.3919
          35.3917
          32.545
          29.7018
          26.8612
          24.0224
          21.1846
          21.2293
          24.7539
          28.2795
          31.8071
          35.3378
          35.338
          35.3382
          35.3384
          35.3385
          35.3386
          35.3387
          35.2925
          35.255
          35.2301
          35.2205
          35.2278
          35.252
          35.2915
          35.3436
          35.4044
          35.4044
          35.4043
          35.4042
          35.404
          35.4039
          35.4037
          32.5564
          29.7119
          26.869
          24.0268
          21.1849
          21.2295
          24.7578
          28.2868
          31.8174
          35.3509
          35.3511
          35.3513
          35.3515
          35.3517
          35.3518
          35.3518
          35.3177
          35.2908
          35.2737
          35.2683
          35.2756
          35.2956
          35.3273
          35.3688
          35.4175
          35.4174
          35.4173
          35.4172
          35.417
          35.4168
          35.4167
          32.5693
          29.7239
          26.8785
          24.0323
          21.1852
          21.2298
          24.7626
          28.2955
          31.829
          35.3649
          35.3651
          35.3654
          35.3656
          35.3658
          35.366
          35.366
          35.3409
          35.3219
          35.3107
          35.3084
          35.3157
          35.3325
          35.3584
          35.3919
          35.4316
          35.4316
          35.4314
          35.4312
          35.431
          35.4308
          35.4306
          32.5849
          29.7395
          26.8915
          24.0398
          21.1857
          21.2302
          24.7691
          28.3065
          31.8427
          35.3798
          35.3801
          35.3804
          35.3807
          35.381
          35.3813
          35.3813
          35.3633
          35.3506
          35.3439
          35.344
          35.3513
          35.3657
          35.3869
          35.4142
          35.4468
          35.4467
          35.4465
          35.4463
          35.4459
          35.4457
          35.4454
          32.605
          29.7618
          26.911
          24.0516
          21.1864
          21.2309
          24.7789
          28.3224
          31.8601
          35.3956
          35.3959
          35.3964
          35.3969
          35.3973
          35.3976
          35.3978
          35.3858
          35.3784
          35.3756
          35.3778
          35.385
          35.3974
          35.4146
          35.4367
          35.4631
          35.463
          35.4627
          35.4623
          35.4618
          35.4614
          35.4612
          32.6329
          29.7963
          26.9428
          24.0712
          21.1878
          21.2316
          24.7964
          28.3485
          31.885
          35.4123
          35.4126
          35.4132
          35.414
          35.4147
          35.4152
          35.4154
          35.4093
          35.4068
          35.4077
          35.4118
          35.419
          35.4294
          35.443
          35.46
          35.4806
          35.4805
          35.48
          35.4793
          35.4786
          35.478
          35.4777
          32.6752
          29.8538
          26.9978
          24.1058
          21.1896
          21.236
          24.8298
          28.3976
          31.9259
          35.4295
          35.43
          35.4309
          35.4321
          35.4333
          35.4341
          35.4344
          35.4345
          35.4373
          35.442
          35.448
          35.4553
          35.4636
          35.4734
          35.4851
          35.4995
          35.4992
          35.4984
          35.4973
          35.4962
          35.4953
          35.4949
          32.7439
          29.9541
          27.0971
          24.1682
          21.1958
          21.2318
          24.9043
          28.4966
          32.0027
          35.4472
          35.4478
          35.4493
          35.4512
          35.4531
          35.4546
          35.4551
          35.4625
          35.4713
          35.4803
          35.4886
          35.4958
          35.5019
          35.5073
          35.5129
          35.52
          35.5195
          35.5182
          35.5163
          35.5145
          35.5131
          35.5124
          32.8607
          30.1352
          27.2792
          24.2892
          21.1945
          21.2827
          25.0486
          28.7154
          32.157
          35.4648
          35.4658
          35.4681
          35.4713
          35.4745
          35.477
          35.4779
          35.4945
          35.5108
          35.5249
          35.5357
          35.5429
          35.5464
          35.5466
          35.5447
          35.5426
          35.5418
          35.5394
          35.5363
          35.5332
          35.5309
          35.53
          33.0642
          30.4639
          27.6285
          24.5043
          21.2499
          21.1287
          25.4627
          29.1713
          32.4886
          35.4818
          35.4832
          35.4869
          35.4922
          35.4977
          35.5021
          35.5037
          35.5325
          35.5582
          35.5783
          35.592
          35.5992
          35.5997
          35.5938
          35.5825
          35.5682
          35.5666
          35.5624
          35.557
          35.5519
          35.5483
          35.5469
          33.4092
          31.0687
          28.2761
          25.0192
          21.1015
          21.9853
          26.073
          30.3018
          33.1321
          35.4971
          35.4993
          35.505
          35.5135
          35.5232
          35.5311
          35.5344
          35.5799
          35.6171
          35.6437
          35.6603
          35.6674
          35.6649
          35.6524
          35.6294
          35.5984
          35.5953
          35.5877
          35.5783
          35.57
          35.5643
          35.5621
          33.948
          32.1035
          29.6671
          25.7617
          21.9688
          18.614
          29.4771
          32.4492
          34.1711
          35.5091
          35.5123
          35.5215
          35.5344
          35.55
          35.5673
          35.5732
          35.644
          35.6922
          35.7242
          35.7434
          35.7504
          35.7453
          35.7271
          35.6926
          35.6364
          35.6308
          35.6145
          35.5994
          35.5865
          35.5773
          35.574
          34.688
          33.6463
          32.137
          29.3336
          18.5957
          35.4492
          35.4691
          35.4839
          35.4981
          35.5124
          35.5217
          35.5352
          35.5532
          35.5761
          35.6043
          35.6488
          35.7358
          35.7867
          35.8225
          35.8438
          35.8509
          35.8436
          35.8216
          35.7834
          35.7081
          35.6678
          35.6412
          35.6188
          35.6006
          35.5866
          35.5768
          35.5614
          35.5467
          35.5323
          35.5174
          35.4974
          35.4571
          35.471
          35.4847
          35.4985
          35.5126
          35.5278
          35.5456
          35.5684
          35.5976
          35.6365
          35.6882
          35.7441
          35.7948
          35.8302
          35.8514
          35.8584
          35.8514
          35.83
          35.7928
          35.7476
          35.7019
          35.6647
          35.6349
          35.6114
          35.5928
          35.5767
          35.5617
          35.5471
          35.5331
          35.5193
          35.5054
          35.466
          35.4747
          35.486
          35.4993
          35.5143
          35.5314
          35.5521
          35.5781
          35.6117
          35.6557
          35.7123
          35.7707
          35.8182
          35.853
          35.874
          35.8811
          35.8744
          35.8541
          35.8215
          35.779
          35.7287
          35.6813
          35.6456
          35.6183
          35.5965
          35.5783
          35.5622
          35.5476
          35.5343
          35.523
          35.5143
          35.4725
          35.4762
          35.4866
          35.4997
          35.515
          35.5328
          35.5543
          35.5815
          35.6164
          35.6621
          35.7238
          35.7864
          35.8337
          35.8681
          35.889
          35.8962
          35.8896
          35.87
          35.8384
          35.7962
          35.7407
          35.6873
          35.6494
          35.6206
          35.5978
          35.5789
          35.5625
          35.5478
          35.5349
          35.5245
          35.5208
        </DataArray>
      </PointData>
      <CellData>
      </CellData>
      <Points>
        <DataArray type="Float32" NumberOfComponents="3" format="ascii">
          0.039 0.00195 0.0
          0.0377 0.00195 0.0
          0.0364 0.00195 0.0
          0.0351 0.00195 0.0
          0.0338 0.00195 0.0
          0.0325 0.00195 0.0
          0.0312 0.00195 0.0
          0.0299 0.00195 0.0
          0.0286 0.00195 0.0
          0.0273 0.00195 0.0
          0.026 0.00195 0.0
          0.0247 0.00195 0.0
          0.0234 0.00195 0.0
          0.0221 0.00195 0.0
          0.0208 0.00195 0.0
          0.0195 0.00195 0.0
          0.0182 0.00195 0.0
          0.0169 0.00195 0.0
          0.0156 0.00195 0.0
          0.0143 0.00195 0.0
          0.013 0.00195 0.0
          0.0117 0.00195 0.0
          0.0104 0.00195 0.0
          0.0091 0.00195 0.0
          0.0078 0.00195 0.0
          0.0065 0.00195 0.0
          0.0052 0.00195 0.0
          0.0039 0.00195 0.0
          0.0026 0.00195 0.0
          0.0013 0.00195 0.0
          0 0.00195 0.0
          0.039 0.00065 0.0
          0.0377 0.00065 0.0
          0.0364 0.00065 0.0
          0.0351 0.00065 0.0
          0.0338 0.00065 0.0
          0.0325 0.00065 0.0
          0.0312 0.00065 0.0
          0.0299 0.00065 0.0
          0.0286 0.00065 0.0
          0.0273 0.00065 0.0
          0.026 0.00065 0.0
          0.0247 0.00065 0.0
          0.0234 0.00065 0.0
          0.0221 0.00065 0.0
          0.0208 0.00065 0.0
          0.0195 0.00065 0.0
          0.0182 0.00065 0.0
          0.0169 0.00065 0.0
          0.0156 0.00065 0.0
          0.0143 0.00065 0.0
          0.013 0.00065 0.0
          0.0117 0.00065 0.0
          0.0104 0.00065 0.0
          0.0091 0.00065 0.0
          0.0078 0.00065 0.0
          0.0065 0.00065 0.0
          0.0052 0.00065 0.0
          0.0039 0.00065 0.0
          0.0026 0.00065 0.0
          0.0013 0.00065 0.0
          0 0.00065 0.0
          0.039 -0.00065 0.0
          0.0377 -0.00065 0.0
          0.0364 -0.00065 0.0
          0.0351 -0.00065 0.0
          0.0338 -0.00065 0.0
          0.0325 -0.00065 0.0
          0.0312 -0.00065 0.0
          0.0299 -0.00065 0.0
          0.0286 -0.00065 0.0
          0.0273 -0.00065 0.0
          0.026 -0.00065 0.0
          0.0247 -0.00065 0.0
          0.0234 -0.00065 0.0
          0.0221 -0.00065 0.0
          0.0208 -0.00065 0.0
          0.0195 -0.00065 0.0
          0.0182 -0.00065 0.0
          0.0169 -0.00065 0.0
          0.0156 -0.00065 0.0
          0.0143 -0.00065 0.0
          0.013 -0.00065 0.0
          0.0117 -0.00065 0.0
          0.0104 -0.00065 0.0
          0.0091 -0.00065 0.0
          0.0078 -0.00065 0.0
          0.0065 -0.00065 0.0
          0.0052 -0.00065 0.0
          0.0039 -0.00065 0.0
          0.0026 -0.00065 0.0
          0.0013 -0.00065 0.0
          0 -0.00065 0.0
          0.039 -0.00195 0.0
          0.0377 -0.00195 0.0
          0.0364 -0.00195 0.0
          0.0351 -0.00195 0.0
          0.0338 -0.00195 0.0
          0.0325 -0.00195 0.0
          0.0312 -0.00195 0.0
          0.0299 -0.00195 0.0
          0.0286 -0.00195 0.0
          0.0273 -0.00195 0.0
          0.026 -0.00195 0.0
          0.0247 -0.00195 0.0
          0.0234 -0.00195 0.0
          0.0221 -0.00195 0.0
          0.0208 -0.00195 0.0
          0.0195 -0.00195 0.0
          0.0182 -0.00195 0.0
          0.0169 -0.00195 0.0
          0.0156 -0.00195 0.0
          0.0143 -0.00195 0.0
          0.013 -0.00195 0.0
          0.0117 -0.00195 0.0
          0.0104 -0.00195 0.0
          0.0091 -0.00195 0.0
          0.0078 -0.00195 0.0
          0.0065 -0.00195 0.0
          0.0052 -0.00195 0.0
          0.0039 -0.00195 0.0
          0.0026 -0.00195 0.0
          0.0013 -0.00195 0.0
          0 -0.00195 0.0
          0.039 -0.00325 0.0
          0.0377 -0.00325 0.0
          0.0364 -0.00325 0.0
          0.0351 -0.00325 0.0
          0.0338 -0.00325 0.0
          0.0325 -0.00325 0.0
          0.0312 -0.00325 0.0
          0.0299 -0.00325 0.0
          0.0286 -0.00325 0.0
          0.0273 -0.00325 0.0
          0.026 -0.00325 0.0
          0.0247 -0.00325 0.0
          0.0234 -0.00325 0.0
          0.0221 -0.00325 0.0
          0.0208 -0.00325 0.0
          0.0195 -0.00325 0.0
          0.0182 -0.00325 0.0
          0.0169 -0.00325 0.0
          0.0156 -0.00325 0.0
          0.0143 -0.00325 0.0
          0.013 -0.00325 0.0
          0.0117 -0.00325 0.0
          0.0104 -0.00325 0.0
          0.0091 -0.00325 0.0
          0.0078 -0.00325 0.0
          0.0065 -0.00325 0.0
          0.0052 -0.00325 0.0
          0.0039 -0.00325 0.0
          0.0026 -0.00325 0.0
          0.0013 -0.00325 0.0
          0 -0.00325 0.0
          0.039 -0.00455 0.0
          0.0377 -0.00455 0.0
          0.0364 -0.00455 0.0
          0.0351 -0.00455 0.0
          0.0338 -0.00455 0.0
          0.0325 -0.00455 0.0
          0.0312 -0.00455 0.0
          0.0299 -0.00455 0.0
          0.0286 -0.00455 0.0
          0.0273 -0.00455 0.0
          0.026 -0.00455 0.0
          0.0247 -0.00455 0.0
          0.0234 -0.00455 0.0
          0.0221 -0.00455 0.0
          0.0208 -0.00455 0.0
          0.0195 -0.00455 0.0
          0.0182 -0.00455 0.0
          0.0169 -0.00455 0.0
          0.0156 -0.00455 0.0
          0.0143 -0.00455 0.0
          0.013 -0.00455 0.0
          0.0117 -0.00455 0.0
          0.0104 -0.00455 0.0
          0.0091 -0.00455 0.0
          0.0078 -0.00455 0.0
          0.0065 -0.00455 0.0
          0.0052 -0.00455 0.0
          0.0039 -0.00455 0.0
          0.0026 -0.00455 0.0
          0.0013 -0.00455 0.0
          0 -0.00455 0.0
          0.039 -0.00585 0.0
          0.0377 -0.00585 0.0
          0.0364 -0.00585 0.0
          0.0351 -0.00585 0.0
          0.0338 -0.00585 0.0
          0.0325 -0.00585 0.0
          0.0312 -0.00585 0.0
          0.0299 -0.00585 0.0
          0.0286 -0.00585 0.0
          0.0273 -0.00585 0.0
          0.026 -0.00585 0.0
          0.0247 -0.00585 0.0
          0.0234 -0.00585 0.0
          0.0221 -0.00585 0.0
          0.0208 -0.00585 0.0
          0.0195 -0.00585 0.0
          0.0182 -0.00585 0.0
          0.0169 -0.00585 0.0
          0.0156 -0.00585 0.0
          0.0143 -0.00585 0.0
          0.013 -0.00585 0.0
          0.0117 -0.00585 0.0
          0.0104 -0.00585 0.0
          0.0091 -0.00585 0.0
          0.0078 -0.00585 0.0
          0.0065 -0.00585 0.0
          0.0052 -0.00585 0.0
          0.0039 -0.00585 0.0
          0.0026 -0.00585 0.0
          0.0013 -0.00585 0.0
          0 -0.00585 0.0
          0.039 -0.00715 0.0
          0.0377 -0.00715 0.0
          0.0364 -0.00715 0.0
          0.0351 -0.00715 0.0
          0.0338 -0.00715 0.0
          0.0325 -0.00715 0.0
          0.0312 -0.00715 0.0
          0.0299 -0.00715 0.0
          0.0286 -0.00715 0.0
          0.0273 -0.00715 0.0
          0.026 -0.00715 0.0
          0.0247 -0.00715 0.0
          0.0234 -0.00715 0.0
          0.0221 -0.00715 0.0
          0.0208 -0.00715 0.0
          0.0195 -0.00715 0.0
          0.0182 -0.00715 0.0
          0.0169 -0.00715 0.0
          0.0156 -0.00715 0.0
          0.0143 -0.00715 0.0
          0.013 -0.00715 0.0
          0.0117 -0.00715 0.0
          0.0104 -0.00715 0.0
          0.0091 -0.00715 0.0
          0.0078 -0.00715 0.0
          0.0065 -0.00715 0.0
          0.0052 -0.00715 0.0
          0.0039 -0.00715 0.0
          0.0026 -0.00715 0.0
          0.0013 -0.00715 0.0
          0 -0.00715 0.0
          0.039 -0.00845 0.0
          0.0377 -0.00845 0.0
          0.0364 -0.00845 0.0
          0.0351 -0.00845 0.0
          0.0338 -0.00845 0.0
          0.0325 -0.00845 0.0
          0.0312 -0.00845 0.0
          0.0299 -0.00845 0.0
          0.0286 -0.00845 0.0
          0.0273 -0.00845 0.0
          0.026 -0.00845 0.0
          0.0247 -0.00845 0.0
          0.0234 -0.00845 0.0
          0.0221 -0.00845 0.0
          0.0208 -0.00845 0.0
          0.0195 -0.00845 0.0
          0.0182 -0.00845 0.0
          0.0169 -0.00845 0.0
          0.0156 -0.00845 0.0
          0.0143 -0.00845 0.0
          0.013 -0.00845 0.0
          0.0117 -0.00845 0.0
          0.0104 -0.00845 0.0
          0.0091 -0.00845 0.0
          0.0078 -0.00845 0.0
          0.0065 -0.00845 0.0
          0.0052 -0.00845 0.0
          0.0039 -0.00845 0.0
          0.0026 -0.00845 0.0
          0.0013 -0.00845 0.0
          0 -0.00845 0.0
          0.039 -0.00975 0.0
          0.0377 -0.00975 0.0
          0.0364 -0.00975 0.0
          0.0351 -0.00975 0.0
          0.0338 -0.00975 0.0
          0.0325 -0.00975 0.0
          0.0312 -0.00975 0.0
          0.0299 -0.00975 0.0
          0.0286 -0.00975 0.0
          0.0273 -0.00975 0.0
          0.026 -0.00975 0.0
          0.0247 -0.00975 0.0
          0.0234 -0.00975 0.0
          0.0221 -0.00975 0.0
          0.0208 -0.00975 0.0
          0.0195 -0.00975 0.0
          0.0182 -0.00975 0.0
          0.0169 -0.00975 0.0
          0.0156 -0.00975 0.0
          0.0143 -0.00975 0.0
          0.013 -0.00975 0.0
          0.0117 -0.00975 0.0
          0.0104 -0.00975 0.0
          0.0091 -0.00975 0.0
          0.0078 -0.00975 0.0
          0.0065 -0.00975 0.0
          0.0052 -0.00975 0.0
          0.0039 -0.00975 0.0
          0.0026 -0.00975 0.0
          0.0013 -0.00975 0.0
          0 -0.00975 0.0
          0.039 -0.01105 0.0
          0.0377 -0.01105 0.0
          0.0364 -0.01105 0.0
          0.0351 -0.01105 0.0
          0.0338 -0.01105 0.0
          0.0325 -0.01105 0.0
          0.0312 -0.01105 0.0
          0.0299 -0.01105 0.0
          0.0286 -0.01105 0.0
          0.0273 -0.01105 0.0
          0.026 -0.01105 0.0
          0.0247 -0.01105 0.0
          0.0234 -0.01105 0.0
          0.0221 -0.01105 0.0
          0.0208 -0.01105 0.0
          0.0195 -0.01105 0.0
          0.0182 -0.01105 0.0
          0.0169 -0.01105 0.0
          0.0156 -0.01105 0.0
          0.0143 -0.01105 0.0
          0.013 -0.01105 0.0
          0.0117 -0.01105 0.0
          0.0104 -0.01105 0.0
          0.0091 -0.01105 0.0
          0.0078 -0.01105 0.0
          0.0065 -0.01105 0.0
          0.0052 -0.01105 0.0
          0.0039 -0.01105 0.0
          0.0026 -0.01105 0.0
          0.0013 -0.01105 0.0
          0 -0.01105 0.0
          0.039 -0.01235 0.0
          0.0377 -0.01235 0.0
          0.0364 -0.01235 0.0
          0.0351 -0.01235 0.0
          0.0338 -0.01235 0.0
          0.0325 -0.01235 0.0
          0.0312 -0.01235 0.0
          0.0299 -0.01235 0.0
          0.0286 -0.01235 0.0
          0.0273 -0.01235 0.0
          0.026 -0.01235 0.0
          0.0247 -0.01235 0.0
          0.0234 -0.01235 0.0
          0.0221 -0.01235 0.0
          0.0208 -0.01235 0.0
          0.0195 -0.01235 0.0
          0.0182 -0.01235 0.0
          0.0169 -0.01235 0.0
          0.0156 -0.01235 0.0
          0.0143 -0.01235 0.0
          0.013 -0.01235 0.0
          0.0117 -0.01235 0.0
          0.0104 -0.01235 0.0
          0.0091 -0.01235 0.0
          0.0078 -0.01235 0.0
          0.0065 -0.01235 0.0
          0.0052 -0.01235 0.0
          0.0039 -0.01235 0.0
          0.0026 -0.01235 0.0
          0.0013 -0.01235 0.0
          0 -0.01235 0.0
          0.039 -0.01365 0.0
          0.0377 -0.01365 0.0
          0.0364 -0.01365 0.0
          0.0351 -0.01365 0.0
          0.0338 -0.01365 0.0
          0.0325 -0.01365 0.0
          0.0312 -0.01365 0.0
          0.0299 -0.01365 0.0
          0.0286 -0.01365 0.0
          0.0273 -0.01365 0.0
          0.026 -0.01365 0.0
          0.0247 -0.01365 0.0
          0.0234 -0.01365 0.0
          0.0221 -0.01365 0.0
          0.0208 -0.01365 0.0
          0.0195 -0.01365 0.0
          0.0182 -0.01365 0.0
          0.0169 -0.01365 0.0
          0.0156 -0.01365 0.0
          0.0143 -0.01365 0.0
          0.013 -0.01365 0.0
          0.0117 -0.01365 0.0
          0.0104 -0.01365 0.0
          0.0091 -0.01365 0.0
          0.0078 -0.01365 0.0
          0.0065 -0.01365 0.0
          0.0052 -0.01365 0.0
          0.0039 -0.01365 0.0
          0.0026 -0.01365 0.0
          0.0013 -0.01365 0.0
          0 -0.01365 0.0
          0.039 -0.01495 0.0
          0.0377 -0.01495 0.0
          0.0364 -0.01495 0.0
          0.0351 -0.01495 0.0
          0.0338 -0.01495 0.0
          0.0325 -0.01495 0.0
          0.0312 -0.01495 0.0
          0.0299 -0.01495 0.0
          0.0286 -0.01495 0.0
          0.0273 -0.01495 0.0
          0.026 -0.01495 0.0
          0.0247 -0.01495 0.0
          0.0234 -0.01495 0.0
          0.0221 -0.01495 0.0
          0.0208 -0.01495 0.0