<?xml version="1.0"?>
<VTKFile type="UnstructuredGrid" version="0.1" byte_order="LittleEndian">
  <UnstructuredGrid>
    <Piece NumberOfPoints="961" NumberOfCells="900">
      <PointData Scalars="Temperature">
        <DataArray type="Float32" Name="Temperature" format="ascii">
          21.0037
          21.0622
          21.1228
          21.1832
          21.2344
          21.2701
          21.2881
          21.2943
          21.2916
          21.2807
          21.2593
          21.2312
          21.2027
          21.1817
          21.1708
          21.171
          21.182
          21.2034
          21.2321
          21.2604
          21.282
          21.293
          21.296
          21.2904
          21.2739
          21.2414
          21.1956
          21.1427
          21.0918
          21.0454
          21.0027
          21.0603
          22.0008
          23.0092
          24.0213
          24.9036
          25.4777
          25.759
          25.8329
          25.8034
          25.6288
          25.28
          24.7815
          24.2951
          23.9359
          23.7665
          23.7684
          23.9417
          24.3053
          24.7961
          25.2986
          25.6503
          25.8269
          25.8592
          25.793
          25.5349
          25.0116
          24.2174
          23.3289
          22.4784
          21.7333
          21.0441
          21.1122
          22.8657
          24.7719
          27.0476
          28.901
          30.0977
          30.3725
          30.4441
          30.4154
          30.2447
          29.461
          28.3574
          27.1693
          26.5048
          26.1996
          26.2032
          26.5156
          27.1884
          28.3865
          29.4984
          30.2878
          30.4605
          30.4919
          30.4278
          30.1756
          29.0709
          27.3877
          25.3639
          23.7563
          22.3664
          21.0823
          21.1552
          23.5797
          26.2382
          29.4173
          35.1256
          35.1263
          35.1266
          35.1268
          35.1268
          35.1267
          35.1262
          31.1525
          29.6023
          28.7321
          28.3437
          28.3486
          28.7471
          29.6287
          31.1929
          35.1923
          35.1928
          35.1929
          35.1929
          35.1928
          35.1925
          35.1918
          29.8651
          27.0588
          24.8234
          22.9006
          21.1146
          21.1864
          24.0925
          27.2183
          30.9185
          35.1269
          35.1272
          35.1275
          35.1276
          35.1276
          35.1275
          35.1274
          32.9863
          31.4022
          30.5234
          30.1202
          30.1261
          30.5415
          31.4336
          33.0338
          35.1935
          35.1937
          35.1938
          35.1937
          35.1936
          35.1934
          35.1931
          31.444
          28.2212
          25.6157
          23.3087
          21.1395
          21.2061
          24.4035
          27.7562
          31.3475
          35.129
          35.1292
          35.1294
          35.1295
          35.1296
          35.1296
          35.1295
          33.7465
          32.6175
          31.8685
          31.5117
          31.5183
          31.8885
          32.6518
          33.7962
          35.1956
          35.1957
          35.1957
          35.1957
          35.1955
          35.1954
          35.1952
          31.9416
          28.897
          26.1319
          23.5896
          21.1569
          21.2168
          24.5658
          27.99
          31.5214
          35.132
          35.1322
          35.1324
          35.1325
          35.1326
          35.1326
          35.1325
          34.1941
          33.3969
          32.8357
          32.5532
          32.5602
          32.8567
          33.4324
          34.2447
          35.1986
          35.1987
          35.1987
          35.1986
          35.1985
          35.1984
          35.1982
          32.1665
          29.2302
          26.4343
          23.7646
          21.168
          21.2219
          24.641
          28.0949
          31.5974
          35.136
          35.1362
          35.1364
          35.1365
          35.1366
          35.1366
          35.1366
          34.4853
          33.9235
          33.5179
          33.3098
          33.317
          33.5395
          33.9596
          34.5363
          35.2026
          35.2027
          35.2027
          35.2026
          35.2025
          35.2024
          35.2022
          32.278
          29.4021
          26.5992
          23.8657
          21.1745
          21.2243
          24.6755
          28.143
          31.6332
          35.1411
          35.1413
          35.1414
          35.1416
          35.1416
          35.1417
          35.1417
          34.6846
          34.2882
          33.9996
          33.851
          33.8582
          34.0214
          34.3246
          34.7358
          35.2077
          35.2077
          35.2077
          35.2076
          35.2075
          35.2074
          35.2072
          32.337
          29.4932
          26.6884
          23.9215
          21.1781
          21.2254
          24.6919
          28.1662
          31.6518
          35.1471
          35.1473
          35.1475
          35.1476
          35.1477
          35.1477
          35.1477
          34.8248
          34.5447
          34.3406
          34.236
          34.2433
          34.3625
          34.5813
          34.8761
          35.2137
          35.2137
          35.2137
          35.2136
          35.2136
          35.2134
          35.2133
          32.3704
          29.5429
          26.737
          23.9521
          21.1801
          21.2259
          24.7003
          28.1787
          31.6634
          35.1542
          35.1544
          35.1545
          35.1547
          35.1548
          35.1548
          35.1548
          34.9254
          34.7271
          34.583
          34.5102
          34.5175
          34.605
          34.7637
          34.9767
          35.2208
          35.2208
          35.2207
          35.2207
          35.2206
          35.2204
          35.2203
          32.391
          29.5714
          26.7643
          23.9691
          21.1812
          21.2263
          24.7053
          28.1868
          31.6722
          35.1623
          35.1625
          35.1626
          35.1627
          35.1628
          35.1629
          35.1629
          34.9991
          34.8582
          34.7566
          34.7063
          34.7136
          34.7786
          34.8948
          35.0503
          35.2288
          35.2288
          35.2288
          35.2287
          35.2286
          35.2285
          35.2283
          32.4053
          29.5891
          26.7806
          23.9791
          21.1819
          21.2265
          24.709
          28.1931
          31.6803
          35.1713
          35.1715
          35.1717
          35.1718
          35.1719
          35.172
          35.172
          35.0542
          34.9538
          34.8822
          34.8479
          34.8552
          34.9042
          34.9904
          35.1055
          35.2379
          35.2379
          35.2378
          35.2377
          35.2376
          35.2375
          35.2373
          32.4169
          29.6015
          26.7913
          23.9855
          21.1823
          21.2267
          24.7122
          28.1991
          31.6885
          35.1814
          35.1816
          35.1818
          35.1819
          35.182
          35.1821
          35.1821
          35.0968
          35.025
          34.9745
          34.9514
          34.9587
          34.9965
          35.0615
          35.148
          35.2479
          35.2479
          35.2479
          35.2478
          35.2477
          35.2475
          35.2474
          32.4274
          29.6116
          26.7995
          23.9902
          21.1826
          21.2269
          24.7155
          28.2052
          31.6972
          35.1925
          35.1927
          35.1929
          35.193
          35.1931
          35.1932
          35.1932
          35.131
          35.0793
          35.0439
          35.0287
          35.036
          35.0658
          35.1158
          35.1821
          35.259
          35.259
          35.2589
          35.2588
          35.2587
          35.2585
          35.2584
          32.438
          29.6211
          26.8069
          23.9944
          21.1829
          21.2271
          24.7189
          28.2118
          31.7066
          35.2046
          35.2048
          35.205
          35.2051
          35.2053
          35.2054
          35.2054
          35.1595
          35.1224
          35.0976
          35.0882
          35.0954
          35.1195
          35.1588
          35.2106
          35.2711
          35.271
          35.271
          35.2709
          35.2707
          35.2706
          35.2704
          32.4494
          29.6312
          26.8147
          23.9988
          21.1831
          21.2274
          24.7229
          28.2191
          31.7169
          35.2176
          35.2178
          35.2181
          35.2183
          35.2184
          35.2185
          35.2186
          35.1847
          35.158
          35.141
          35.1357
          35.1429
          35.1629
          35.1944
          35.2357
          35.2842
          35.2841
          35.2841
          35.2839
          35.2837
          35.2836
          35.2834
          32.4623
          29.6432
          26.8241
          24.0042
          21.1835
          21.2277
          24.7277
          28.2278
          31.7286
          35.2316
          35.2319
          35.2321
          35.2324
          35.2326
          35.2328
          35.2328
          35.2078
          35.189
          35.1778
          35.1756
          35.1828
          35.1996
          35.2253
          35.2588
          35.2983
          35.2983
          35.2981
          35.298
          35.2977
          35.2975
          35.2973
          32.4778
          29.6587
          26.837
          24.0117
          21.184
          21.2281
          24.7341
          28.2388
          31.7422
          35.2466
          35.2469
          35.2472
          35.2475
          35.2478
          35.248
          35.2481
          35.2302
          35.2175
          35.2109
          35.2111
          35.2183
          35.2327
          35.2538
          35.2811
          35.3135
          35.3135
          35.3133
          35.313
          35.3127
          35.3124
          35.3122
          32.4978
          29.6809
          26.8564
          24.0234
          21.1847
          21.2288
          24.7439
          28.2546
          31.7595
          35.2624
          35.2627
          35.2632
          35.2637
          35.2641
          35.2644
          35.2646
          35.2527
          35.2453
          35.2425
          35.2447
          35.252
          35.2643
          35.2815
          35.3035
          35.3299
          35.3298
          35.3295
          35.329
          35.3286
          35.3282
          35.3279
          32.5257
          29.7152
          26.888
          24.0428
          21.1861
          21.2295
          24.7613
          28.2805
          31.7843
          35.2791
          35.2795
          35.2801
          35.2808
          35.2815
          35.282
          35.2822
          35.2761
          35.2737
          35.2746
          35.2787
          35.2859
          35.2963
          35.3098
          35.3268
          35.3474
          35.3473
          35.3468
          35.3461
          35.3454
          35.3448
          35.3445
          32.5677
          29.7722
          26.9426
          24.0772
          21.1878
          21.2338
          24.7944
          28.3293
          31.825
          35.2964
          35.2969
          35.2978
          35.299
          35.3001
          35.301
          35.3013
          35.3013
          35.3041
          35.3088
          35.3149
          35.3221
          35.3305
          35.3402
          35.3519
          35.3663
          35.366
          35.3652
          35.3641
          35.363
          35.3621
          35.3617
          32.6359
          29.8717
          27.041
          24.139
          21.194
          21.2297
          24.8683
          28.4275
          31.9013
          35.3141
          35.3147
          35.3162
          35.3181
          35.32
          35.3214
          35.322
          35.3293
          35.3382
          35.3472
          35.3554
          35.3626
          35.3687
          35.3742
          35.3797
          35.3869
          35.3864
          35.385
          35.3831
          35.3813
          35.3799
          35.3793
          32.7518
          30.0513
          27.2215
          24.259
          21.1927
          21.2801
          25.0113
          28.6444
          32.0543
          35.3317
          35.3327
          35.335
          35.3382
          35.3414
          35.3439
          35.3448
          35.3614
          35.3777
          35.3918
          35.4026
          35.4097
          35.4132
          35.4135
          35.4116
          35.4095
          35.4086
          35.4063
          35.4031
          35.4
          35.3978
          35.3969
          32.9536
          30.3771
          27.5677
          24.4721
          21.2477
          21.1275
          25.4217
          29.0961
          32.383
          35.3488
          35.3502
          35.3539
          35.3591
          35.3647
          35.369
          35.3706
          35.3994
          35.4251
          35.4452
          35.4589
          35.466
          35.4665
          35.4607
          35.4494
          35.4351
          35.4335
          35.4293
          35.4239
          35.4188
          35.4152
          35.4139
          33.2956
          30.9765
          28.2095
          24.9824
          21.1005
          21.9762
          26.0264
          30.2165
          33.0207
          35.3641
          35.3662
          35.372
          35.3805
          35.3901
          35.398
          35.4013
          35.4468
          35.484
          35.5106
          35.5272
          35.5343
          35.5318
          35.5193
          35.4963
          35.4653
          35.4622
          35.4546
          35.4453
          35.437
          35.4312
          35.4291
          33.8297
          32.002
          29.5878
          25.7181
          21.96
          18.6358
          29.3994
          32.3442
          34.0504
          35.3761
          35.3793
          35.3885
          35.4013
          35.417
          35.4342
          35.4402
          35.5109
          35.5592
          35.5911
          35.6103
          35.6173
          35.6122
          35.5941
          35.5595
          35.5034
          35.4978
          35.4815
          35.4663
          35.4535
          35.4443
          35.441
          34.563
          33.5308
          32.0353
          29.2575
          18.6176
          35.3169
          35.3366
          35.3513
          35.3654
          35.3795
          35.3888
          35.4023
          35.4203
          35.4431
          35.4713
          35.5157
          35.6028
          35.6536
          35.6895
          35.7107
          35.7178
          35.7106
          35.6885
          35.6504
          35.5751
          35.5348
          35.5082
          35.4858
          35.4676
          35.4537
          35.4439
          35.4286
          35.4141
          35.3998
          35.385
          35.3652
          35.3248
          35.3385
          35.3521
          35.3658
          35.3798
          35.3949
          35.4127
          35.4354
          35.4646
          35.5035
          35.5551
          35.611
          35.6617
          35.6971
          35.7183
          35.7254
          35.7183
          35.6969
          35.6597
          35.6145
          35.5689
          35.5316
          35.5019
          35.4784
          35.4599
          35.4438
          35.429
          35.4144
          35.4005
          35.3869
          35.3731
          35.3336
          35.3421
          35.3534
          35.3666
          35.3815
          35.3986
          35.4192
          35.4451
          35.4787
          35.5227
          35.5793
          35.6377
          35.6851
          35.7199
          35.7409
          35.748
          35.7413
          35.721
          35.6885
          35.646
          35.5957
          35.5483
          35.5126
          35.4853
          35.4636
          35.4455
          35.4295
          35.4149
          35.4017
          35.3905
          35.3819
          35.34
          35.3437
          35.354
          35.367
          35.3822
          35.3999
          35.4214
          35.4485
          35.4835
          35.5291
          35.5908
          35.6534
          35.7007
          35.735
          35.7559
          35.7631
          35.7566
          35.7369
          35.7053
          35.6631
          35.6077
          35.5543
          35.5165
          35.4877
          35.465
          35.4461
          35.4298
          35.4152
          35.4023
          35.392
          35.3884
        </DataArray>
      </PointData>
      <CellData>
      </CellData>
      <Points>
        <DataArray type="Float32" NumberOfComponents="3" format="ascii">
          0.039 0.00195 0.0
          0.0377 0.00195 0.0
          0.0364 0.00195 0.0
          0.0351 0.00195 0.0
          0.0338 0.00195 0.0
          0.0325 0.00195 0.0
          0.0312 0.00195 0.0
          0.0299 0.00195 0.0
          0.0286 0.00195 0.0
          0.0273 0.00195 0.0
          0.026 0.00195 0.0
          0.0247 0.00195 0.0
          0.0234 0.00195 0.0
          0.0221 0.00195 0.0
          0.0208 0.00195 0.0
          0.0195 0.00195 0.0
          0.0182 0.00195 0.0
          0.0169 0.00195 0.0
          0.0156 0.00195 0.0
          0.0143 0.00195 0.0
          0.013 0.00195 0.0
          0.0117 0.00195 0.0
          0.0104 0.00195 0.0
          0.0091 0.00195 0.0
          0.0078 0.00195 0.0
          0.0065 0.00195 0.0
          0.0052 0.00195 0.0
          0.0039 0.00195 0.0
          0.0026 0.00195 0.0
          0.0013 0.00195 0.0
          0 0.00195 0.0
          0.039 0.00065 0.0
          0.0377 0.00065 0.0
          0.0364 0.00065 0.0
          0.0351 0.00065 0.0
          0.0338 0.00065 0.0
          0.0325 0.00065 0.0
          0.0312 0.00065 0.0
          0.0299 0.00065 0.0
          0.0286 0.00065 0.0
          0.0273 0.00065 0.0
          0.026 0.00065 0.0
          0.0247 0.00065 0.0
          0.0234 0.00065 0.0
          0.0221 0.00065 0.0
          0.0208 0.00065 0.0
          0.0195 0.00065 0.0
          0.0182 0.00065 0.0
          0.0169 0.00065 0.0
          0.0156 0.00065 0.0
          0.0143 0.00065 0.0
          0.013 0.00065 0.0
          0.0117 0.00065 0.0
          0.0104 0.00065 0.0
          0.0091 0.00065 0.0
          0.0078 0.00065 0.0
          0.0065 0.00065 0.0
          0.0052 0.00065 0.0
          0.0039 0.00065 0.0
          0.0026 0.00065 0.0
          0.0013 0.00065 0.0
          0 0.00065 0.0
          0.039 -0.00065 0.0
          0.0377 -0.00065 0.0
          0.0364 -0.00065 0.0
          0.0351 -0.00065 0.0
          0.0338 -0.00065 0.0
          0.0325 -0.00065 0.0
          0.0312 -0.00065 0.0
          0.0299 -0.00065 0.0
          0.0286 -0.00065 0.0
          0.0273 -0.00065 0.0
          0.026 -0.00065 0.0
          0.0247 -0.00065 0.0
          0.0234 -0.00065 0.0
          0.0221 -0.00065 0.0
          0.0208 -0.00065 0.0
          0.0195 -0.00065 0.0
          0.0182 -0.00065 0.0
          0.0169 -0.00065 0.0
          0.0156 -0.00065 0.0
          0.0143 -0.00065 0.0
          0.013 -0.00065 0.0
          0.0117 -0.00065 0.0
          0.0104 -0.00065 0.0
          0.0091 -0.00065 0.0
          0.0078 -0.00065 0.0
          0.0065 -0.00065 0.0
          0.0052 -0.00065 0.0
          0.0039 -0.00065 0.0
          0.0026 -0.00065 0.0
          0.0013 -0.00065 0.0
          0 -0.00065 0.0
          0.039 -0.00195 0.0
          0.0377 -0.00195 0.0
          0.0364 -0.00195 0.0
          0.0351 -0.00195 0.0
          0.0338 -0.00195 0.0
          0.0325 -0.00195 0.0
          0.0312 -0.00195 0.0
          0.0299 -0.00195 0.0
          0.0286 -0.00195 0.0
          0.0273 -0.00195 0.0
          0.026 -0.00195 0.0
          0.0247 -0.00195 0.0
          0.0234 -0.00195 0.0
          0.0221 -0.00195 0.0
          0.0208 -0.00195 0.0
          0.0195 -0.00195 0.0
          0.0182 -0.00195 0.0
          0.0169 -0.00195 0.0
          0.0156 -0.00195 0.0
          0.0143 -0.00195 0.0
          0.013 -0.00195 0.0
          0.0117 -0.00195 0.0
          0.0104 -0.00195 0.0
          0.0091 -0.00195 0.0
          0.0078 -0.00195 0.0
          0.0065 -0.00195 0.0
          0.0052 -0.00195 0.0
          0.0039 -0.00195 0.0
          0.0026 -0.00195 0.0
          0.0013 -0.00195 0.0
          0 -0.00195 0.0
          0.039 -0.00325 0.0
          0.0377 -0.00325 0.0
          0.0364 -0.00325 0.0
          0.0351 -0.00325 0.0
          0.0338 -0.00325 0.0
          0.0325 -0.00325 0.0
          0.0312 -0.00325 0.0
          0.0299 -0.00325 0.0
          0.0286 -0.00325 0.0
          0.0273 -0.00325 0.0
          0.026 -0.00325 0.0
          0.0247 -0.00325 0.0
          0.0234 -0.00325 0.0
          0.0221 -0.00325 0.0
          0.0208 -0.00325 0.0
          0.0195 -0.00325 0.0
          0.0182 -0.00325 0.0
          0.0169 -0.00325 0.0
          0.0156 -0.00325 0.0
          0.0143 -0.00325 0.0
          0.013 -0.00325 0.0
          0.0117 -0.00325 0.0
          0.0104 -0.00325 0.0
          0.0091 -0.00325 0.0
          0.0078 -0.00325 0.0
          0.0065 -0.00325 0.0
          0.0052 -0.00325 0.0
          0.0039 -0.00325 0.0
          0.0026 -0.00325 0.0
          0.0013 -0.00325 0.0
          0 -0.00325 0.0
          0.039 -0.00455 0.0
          0.0377 -0.00455 0.0
          0.0364 -0.00455 0.0
          0.0351 -0.00455 0.0
          0.0338 -0.00455 0.0
          0.0325 -0.00455 0.0
          0.0312 -0.00455 0.0
          0.0299 -0.00455 0.0
          0.0286 -0.00455 0.0
          0.0273 -0.00455 0.0
          0.026 -0.00455 0.0
          0.0247 -0.00455 0.0
          0.0234 -0.00455 0.0
          0.0221 -0.00455 0.0
          0.0208 -0.00455 0.0
          0.0195 -0.00455 0.0
          0.0182 -0.00455 0.0
          0.0169 -0.00455 0.0
          0.0156 -0.00455 0.0
          0.0143 -0.00455 0.0
          0.013 -0.00455 0.0
          0.0117 -0.00455 0.0
          0.0104 -0.00455 0.0
          0.0091 -0.00455 0.0
          0.0078 -0.00455 0.0
          0.0065 -0.00455 0.0
          0.0052 -0.00455 0.0
          0.0039 -0.00455 0.0
          0.0026 -0.00455 0.0
          0.0013 -0.00455 0.0
          0 -0.00455 0.0
          0.039 -0.00585 0.0
          0.0377 -0.00585 0.0
          0.0364 -0.00585 0.0
          0.0351 -0.00585 0.0
          0.0338 -0.00585 0.0
          0.0325 -0.00585 0.0
          0.0312 -0.00585 0.0
          0.0299 -0.00585 0.0
          0.0286 -0.00585 0.0
          0.0273 -0.00585 0.0
          0.026 -0.00585 0.0
          0.0247 -0.00585 0.0
          0.0234 -0.00585 0.0
          0.0221 -0.00585 0.0
          0.0208 -0.00585 0.0
          0.0195 -0.00585 0.0
          0.0182 -0.00585 0.0
          0.0169 -0.00585 0.0
          0.0156 -0.00585 0.0
          0.0143 -0.00585 0.0
          0.013 -0.00585 0.0
          0.0117 -0.00585 0.0
          0.0104 -0.00585 0.0
          0.0091 -0.00585 0.0
          0.0078 -0.00585 0.0
          0.0065 -0.00585 0.0
          0.0052 -0.00585 0.0
          0.0039 -0.00585 0.0
          0.0026 -0.00585 0.0
          0.0013 -0.00585 0.0
          0 -0.00585 0.0
          0.039 -0.00715 0.0
          0.0377 -0.00715 0.0
          0.0364 -0.00715 0.0
          0.0351 -0.00715 0.0
          0.0338 -0.00715 0.0
          0.0325 -0.00715 0.0
          0.0312 -0.00715 0.0
          0.0299 -0.00715 0.0
          0.0286 -0.00715 0.0
          0.0273 -0.00715 0.0
          0.026 -0.00715 0.0
          0.0247 -0.00715 0.0
          0.0234 -0.00715 0.0
          0.0221 -0.00715 0.0
          0.0208 -0.00715 0.0
          0.0195 -0.00715 0.0
          0.0182 -0.00715 0.0
          0.0169 -0.00715 0.0
          0.0156 -0.00715 0.0
          0.0143 -0.00715 0.0
          0.013 -0.00715 0.0
          0.0117 -0.00715 0.0
          0.0104 -0.00715 0.0
          0.0091 -0.00715 0.0
          0.0078 -0.00715 0.0
          0.0065 -0.00715 0.0
          0.0052 -0.00715 0.0
          0.0039 -0.00715 0.0
          0.0026 -0.00715 0.0
          0.0013 -0.00715 0.0
          0 -0.00715 0.0
          0.039 -0.00845 0.0
          0.0377 -0.00845 0.0
          0.0364 -0.00845 0.0
          0.0351 -0.00845 0.0
          0.0338 -0.00845 0.0
          0.0325 -0.00845 0.0
          0.0312 -0.00845 0.0
          0.0299 -0.00845 0.0
          0.0286 -0.00845 0.0
          0.0273 -0.00845 0.0
          0.026 -0.00845 0.0
          0.0247 -0.00845 0.0
          0.0234 -0.00845 0.0
          0.0221 -0.00845 0.0
          0.0208 -0.00845 0.0
          0.0195 -0.00845 0.0
          0.0182 -0.00845 0.0
          0.0169 -0.00845 0.0
          0.0156 -0.00845 0.0
          0.0143 -0.00845 0.0
          0.013 -0.00845 0.0
          0.0117 -0.00845 0.0
          0.0104 -0.00845 0.0
          0.0091 -0.00845 0.0
          0.0078 -0.00845 0.0
          0.0065 -0.00845 0.0
          0.0052 -0.00845 0.0
          0.0039 -0.00845 0.0
          0.0026 -0.00845 0.0
          0.0013 -0.00845 0.0
          0 -0.00845 0.0
          0.039 -0.00975 0.0
          0.0377 -0.00975 0.0
          0.0364 -0.00975 0.0
          0.0351 -0.00975 0.0
          0.0338 -0.00975 0.0
          0.0325 -0.00975 0.0
          0.0312 -0.00975 0.0
          0.0299 -0.00975 0.0
          0.0286 -0.00975 0.0
          0.0273 -0.00975 0.0
          0.026 -0.00975 0.0
          0.0247 -0.00975 0.0
          0.0234 -0.00975 0.0
          0.0221 -0.00975 0.0
          0.0208 -0.00975 0.0
          0.0195 -0.00975 0.0
          0.0182 -0.00975 0.0
          0.0169 -0.00975 0.0
          0.0156 -0.00975 0.0
          0.0143 -0.00975 0.0
          0.013 -0.00975 0.0
          0.0117 -0.00975 0.0
          0.0104 -0.00975 0.0
          0.0091 -0.00975 0.0
          0.0078 -0.00975 0.0
          0.0065 -0.00975 0.0
          0.0052 -0.00975 0.0
          0.0039 -0.00975 0.0
          0.0026 -0.00975 0.0
          0.0013 -0.00975 0.0
          0 -0.00975 0.0
          0.039 -0.01105 0.0
          0.0377 -0.01105 0.0
          0.0364 -0.01105 0.0
          0.0351 -0.01105 0.0
          0.0338 -0.01105 0.0
          0.0325 -0.01105 0.0
          0.0312 -0.01105 0.0
          0.0299 -0.01105 0.0
          0.0286 -0.01105 0.0
          0.0273 -0.01105 0.0
          0.026 -0.01105 0.0
          0.0247 -0.01105 0.0
          0.0234 -0.01105 0.0
          0.0221 -0.01105 0.0
          0.0208 -0.01105 0.0
          0.0195 -0.01105 0.0
          0.0182 -0.01105 0.0
          0.0169 -0.01105 0.0
          0.0156 -0.01105 0.0
          0.0143 -0.01105 0.0
          0.013 -0.01105 0.0
          0.0117 -0.01105 0.0
          0.0104 -0.01105 0.0
          0.0091 -0.01105 0.0
          0.0078 -0.01105 0.0
          0.0065 -0.01105 0.0
          0.0052 -0.01105 0.0
          0.0039 -0.01105 0.0
          0.0026 -0.01105 0.0
          0.0013 -0.01105 0.0
          0 -0.01105 0.0
          0.039 -0.01235 0.0
          0.0377 -0.01235 0.0
          0.0364 -0.01235 0.0
          0.0351 -0.01235 0.0
          0.0338 -0.01235 0.0
          0.0325 -0.01235 0.0
          0.0312 -0.01235 0.0
          0.0299 -0.01235 0.0
          0.0286 -0.01235 0.0
          0.0273 -0.01235 0.0
          0.026 -0.01235 0.0
          0.0247 -0.01235 0.0
          0.0234 -0.01235 0.0
          0.0221 -0.01235 0.0
          0.0208 -0.01235 0.0
          0.0195 -0.01235 0.0
          0.0182 -0.01235 0.0
          0.0169 -0.01235 0.0
          0.0156 -0.01235 0.0
          0.0143 -0.01235 0.0
          0.013 -0.01235 0.0
          0.0117 -0.01235 0.0
          0.0104 -0.01235 0.0
          0.0091 -0.01235 0.0
          0.0078 -0.01235 0.0
          0.0065 -0.01235 0.0
          0.0052 -0.01235 0.0
          0.0039 -0.01235 0.0
          0.0026 -0.01235 0.0
          0.0013 -0.01235 0.0
          0 -0.01235 0.0
          0.039 -0.01365 0.0
          0.0377 -0.01365 0.0
          0.0364 -0.01365 0.0
          0.0351 -0.01365 0.0
          0.0338 -0.01365 0.0
          0.0325 -0.01365 0.0
          0.0312 -0.01365 0.0
          0.0299 -0.01365 0.0
          0.0286 -0.01365 0.0
          0.0273 -0.01365 0.0
          0.026 -0.01365 0.0
          0.0247 -0.01365 0.0
          0.0234 -0.01365 0.0
          0.0221 -0.01365 0.0
          0.0208 -0.01365 0.0
          0.0195 -0.01365 0.0
          0.0182 -0.01365 0.0
          0.0169 -0.01365 0.0
          0.0156 -0.01365 0.0
          0.0143 -0.01365 0.0
          0.013 -0.01365 0.0
          0.0117 -0.01365 0.0
          0.0104 -0.01365 0.0
          0.0091 -0.01365 0.0
          0.0078 -0.01365 0.0
          0.0065 -0.01365 0.0
          0.0052 -0.01365 0.0
          0.0039 -0.01365 0.0
          0.0026 -0.01365 0.0
          0.0013 -0.01365 0.0
          0 -0.01365 0.0
          0.039 -0.01495 0.0
          0.0377 -0.01495 0.0
          0.0364 -0.01495 0.0
          0.0351 -0.01495 0.0
          0.0338 -0.01495 0.0
          0.0325 -0.01495 0.0
          0.0312 -0.01495 0.0
          0.0299 -0.01495 0.0
          0.0286 -0.01495 0.0
          0.0273 -0.01495 0.0
          0.026 -0.01495 0.0
          0.0247 -0.01495 0.0
          0.0234 -0.01495 0.0
          0.0221 -0.01495 0.0