<?xml version="1.0"?>
<VTKFile type="UnstructuredGrid" version="0.1" byte_order="LittleEndian">
  <UnstructuredGrid>
    <Piece NumberOfPoints="961" NumberOfCells="900">
      <PointData Scalars="Temperature">
        <DataArray type="Float32" Name="Temperature" format="ascii">
          21.003
          21.0514
          21.1015
          21.1514
          21.1937
          21.2232
          21.2382
          21.2433
          21.241
          21.232
          21.2143
          21.1911
          21.1675
          21.1501
          21.1412
          21.1413
          21.1505
          21.1682
          21.192
          21.2154
          21.2333
          21.2424
          21.2449
          21.2403
          21.2266
          21.1997
          21.1618
          21.1181
          21.0759
          21.0375
          21.0023
          21.0499
          21.8272
          22.6606
          23.4973
          24.2266
          24.7012
          24.9338
          24.9949
          24.9705
          24.8261
          24.5376
          24.1254
          23.7232
          23.4263
          23.2864
          23.2883
          23.4321
          23.7333
          24.1398
          24.556
          24.8472
          24.9935
          25.0203
          24.9655
          24.7519
          24.3189
          23.6617
          22.9266
          22.2229
          21.6066
          21.0365
          21.0927
          22.542
          24.1177
          25.999
          27.5312
          28.5206
          28.7478
          28.8069
          28.7832
          28.6421
          27.9939
          27.0813
          26.0987
          25.5494
          25.2974
          25.3008
          25.56
          26.1175
          27.11
          28.0308
          28.6845
          28.8275
          28.8535
          28.8005
          28.5918
          27.6776
          26.2847
          24.6101
          23.2801
          22.1303
          21.0681
          21.1282
          23.1322
          25.3297
          27.9579
          32.6779
          32.6785
          32.6787
          32.6789
          32.6789
          32.6788
          32.6784
          29.3918
          28.1096
          27.3902
          27.0695
          27.0743
          27.405
          28.1357
          29.4316
          32.7436
          32.744
          32.7441
          32.7441
          32.744
          32.7437
          32.7432
          28.3346
          26.0123
          24.1628
          22.5722
          21.0948
          21.1541
          23.5561
          26.14
          29.1991
          32.6791
          32.6793
          32.6796
          32.6797
          32.6797
          32.6796
          32.6795
          30.9078
          29.5974
          28.8708
          28.5379
          28.5437
          28.8886
          29.6284
          30.9547
          32.7447
          32.7448
          32.7449
          32.7449
          32.7448
          32.7446
          32.7444
          29.6412
          26.9741
          24.8184
          22.9098
          21.1154
          21.1704
          23.8133
          26.5848
          29.554
          32.6811
          32.6813
          32.6815
          32.6816
          32.6816
          32.6816
          32.6815
          31.5364
          30.6022
          29.9828
          29.6882
          29.6946
          30.0024
          30.6359
          31.5854
          32.7467
          32.7468
          32.7468
          32.7468
          32.7467
          32.7465
          32.7464
          30.0531
          27.5334
          25.2455
          23.1422
          21.1298
          21.1792
          23.9476
          26.7783
          29.6981
          32.6841
          32.6843
          32.6845
          32.6846
          32.6846
          32.6846
          32.6846
          31.9069
          31.2467
          30.7825
          30.5494
          30.5562
          30.8032
          31.2817
          31.9568
          32.7497
          32.7498
          32.7498
          32.7497
          32.7497
          32.7495
          32.7494
          30.2395
          27.8093
          25.4958
          23.2871
          21.139
          21.1835
          24.0099
          26.8654
          29.7615
          32.6882
          32.6884
          32.6885
          32.6886
          32.6886
          32.6887
          32.6886
          32.1482
          31.6825
          31.3469
          31.1753
          31.1823
          31.3682
          31.7182
          32.1985
          32.7538
          32.7538
          32.7538
          32.7538
          32.7537
          32.7536
          32.7534
          30.3323
          27.952
          25.6325
          23.3708
          21.1444
          21.1854
          24.0387
          26.9056
          29.7918
          32.6933
          32.6934
          32.6936
          32.6937
          32.6937
          32.6938
          32.6938
          32.3138
          31.9848
          31.7458
          31.6233
          31.6305
          31.7673
          32.0207
          32.3643
          32.7589
          32.7589
          32.7589
          32.7588
          32.7588
          32.7586
          32.7585
          30.3819
          28.0278
          25.7067
          23.4172
          21.1474
          21.1863
          24.0525
          26.9253
          29.808
          32.6994
          32.6996
          32.6997
          32.6998
          32.6999
          32.6999
          32.6999
          32.4307
          32.1979
          32.0286
          31.9426
          31.9498
          32.0502
          32.2339
          32.4813
          32.765
          32.765
          32.765
          32.7649
          32.7649
          32.7647
          32.7646
          30.4104
          28.0696
          25.7474
          23.4427
          21.1491
          21.1868
          24.0598
          26.9364
          29.8186
          32.7066
          32.7067
          32.7069
          32.707
          32.7071
          32.7071
          32.7071
          32.5152
          32.3499
          32.2303
          32.1704
          32.1776
          32.2519
          32.386
          32.5658
          32.7722
          32.7722
          32.7721
          32.7721
          32.772
          32.7719
          32.7718
          30.4285
          28.094
          25.7705
          23.4571
          21.15
          21.1871
          24.0643
          26.9438
          29.8271
          32.7148
          32.715
          32.7151
          32.7152
          32.7153
          32.7153
          32.7153
          32.5776
          32.4598
          32.3753
          32.334
          32.3412
          32.3969
          32.4958
          32.6281
          32.7804
          32.7804
          32.7803
          32.7803
          32.7802
          32.7801
          32.7799
          30.4416
          28.1096
          25.7845
          23.4657
          21.1505
          21.1873
          24.0678
          26.95
          29.8351
          32.724
          32.7242
          32.7243
          32.7245
          32.7245
          32.7246
          32.7246
          32.6249
          32.5405
          32.4808
          32.4527
          32.4599
          32.5025
          32.5766
          32.6755
          32.7896
          32.7896
          32.7895
          32.7895
          32.7894
          32.7893
          32.7891
          30.4525
          28.1209
          25.7941
          23.4713
          21.1509
          21.1875
          24.071
          26.9559
          29.8433
          32.7343
          32.7345
          32.7346
          32.7347
          32.7348
          32.7349
          32.7349
          32.6621
          32.6013
          32.5591
          32.5403
          32.5475
          32.5807
          32.6374
          32.7126
          32.7999
          32.7998
          32.7998
          32.7997
          32.7996
          32.7995
          32.7994
          30.4628
          28.1304
          25.8017
          23.4757
          21.1512
          21.1877
          24.0743
          26.962
          29.8521
          32.7456
          32.7458
          32.746
          32.7461
          32.7462
          32.7462
          32.7463
          32.6925
          32.6485
          32.6187
          32.6065
          32.6137
          32.6403
          32.6845
          32.743
          32.8112
          32.8111
          32.8111
          32.811
          32.8109
          32.8108
          32.8106
          30.4733
          28.1396
          25.8086
          23.4796
          21.1514
          21.188
          24.0778
          26.9686
          29.8616
          32.758
          32.7581
          32.7583
          32.7585
          32.7586
          32.7586
          32.7587
          32.7186
          32.6866
          32.6657
          32.6582
          32.6654
          32.6873
          32.7226
          32.769
          32.8235
          32.8235
          32.8234
          32.8233
          32.8232
          32.8231
          32.8229
          30.4846
          28.1494
          25.8161
          23.4837
          21.1517
          21.1882
          24.0817
          26.976
          29.8721
          32.7713
          32.7715
          32.7717
          32.7719
          32.772
          32.7721
          32.7721
          32.742
          32.7188
          32.7044
          32.7004
          32.7076
          32.726
          32.7548
          32.7924
          32.8369
          32.8369
          32.8368
          32.8367
          32.8365
          32.8364
          32.8362
          30.4973
          28.1608
          25.8249
          23.4887
          21.152
          21.1885
          24.0864
          26.9846
          29.8838
          32.7857
          32.7859
          32.7861
          32.7863
          32.7865
          32.7866
          32.7867
          32.7642
          32.7475
          32.7381
          32.7367
          32.7439
          32.7596
          32.7835
          32.8145
          32.8514
          32.8514
          32.8512
          32.8511
          32.8509
          32.8507
          32.8505
          30.5124
          28.1754
          25.8367
          23.4955
          21.1524
          21.1889
          24.0925
          26.9952
          29.8973
          32.801
          32.8012
          32.8015
          32.8018
          32.8021
          32.8023
          32.8024
          32.7859
          32.7746
          32.7691
          32.7698
          32.7769
          32.7906
          32.8105
          32.8362
          32.867
          32.8669
          32.8667
          32.8665
          32.8662
          32.8659
          32.8657
          30.5313
          28.1955
          25.854
          23.5058
          21.1531
          21.1895
          24.1014
          27.0098
          29.914
          32.8172
          32.8175
          32.8179
          32.8183
          32.8188
          32.8191
          32.8192
          32.8081
          32.8015
          32.7994
          32.8019
          32.809
          32.8209
          32.8373
          32.8583
          32.8837
          32.8836
          32.8833
          32.8829
          32.8825
          32.8821
          32.8819
          30.5569
          28.2258
          25.8815
          23.5226
          21.1543
          21.1902
          24.1167
          27.033
          29.937
          32.8343
          32.8346
          32.8352
          32.8359
          32.8366
          32.8371
          32.8372
          32.8315
          32.8294
          32.8306
          32.8348
          32.842
          32.8521
          32.8652
          32.8816
          32.9017
          32.9015
          32.9011
          32.9004
          32.8997
          32.8992
          32.8989
          30.5944
          28.2751
          25.9281
          23.5518
          21.1558
          21.1938
          24.145
          27.0752
          29.9733
          32.852
          32.8525
          32.8533
          32.8545
          32.8556
          32.8564
          32.8567
          32.8568
          32.8597
          32.8644
          32.8705
          32.8777
          32.8859
          32.8954
          32.9068
          32.9211
          32.9208
          32.92
          32.9189
          32.9178
          32.917
          32.9166
          30.6537
          28.3598
          26.0112
          23.6038
          21.1609
          21.1904
          24.2072
          27.1584
          30.0392
          32.8702
          32.8708
          32.8722
          32.8741
          32.876
          32.8773
          32.8779
          32.885
          32.8937
          32.9027
          32.9109
          32.918
          32.924
          32.9293
          32.9349
          32.9421
          32.9416
          32.9402
          32.9384
          32.9366
          32.9353
          32.9347
          30.7528
          28.511
          26.1625
          23.7042
          21.1599
          21.2324
          24.3269
          27.3402
          30.1689
          32.8885
          32.8894
          32.8916
          32.8947
          32.8978
          32.9002
          32.9011
          32.9173
          32.9334
          32.9473
          32.9581
          32.9652
          32.9686
          32.9688
          32.967
          32.9652
          32.9643
          32.962
          32.9589
          32.9559
          32.9538
          32.9529
          30.9233
          28.7838
          26.4516
          23.882
          21.2056
          21.1057
          24.6685
          27.7171
          30.4444
          32.9061
          32.9075
          32.9111
          32.9161
          32.9216
          32.9258
          32.9274
          32.9558
          32.9811
          33.001
          33.0146
          33.0217
          33.0222
          33.0164
          33.0052
          32.9912
          32.9897
          32.9856
          32.9803
          32.9753
          32.9718
          32.9705
          31.2102
          29.284
          26.9862
          24.3067
          21.0834
          21.8105
          25.1716
          28.649
          30.9765
          32.9222
          32.9243
          32.9298
          32.938
          32.9475
          32.9553
          32.9585
          33.0035
          33.0404
          33.0668
          33.0833
          33.0903
          33.0878
          33.0754
          33.0526
          33.0219
          33.0188
          33.0114
          33.0022
          32.9941
          32.9886
          32.9866
          31.6567
          30.1383
          28.1331
          24.9189
          21.7976
          19.0368
          27.9733
          30.4177
          31.834
          32.9352
          32.9383
          32.947
          32.9595
          32.9748
          32.9918
          32.9977
          33.0681
          33.1161
          33.1479
          33.1669
          33.1739
          33.1688
          33.1507
          33.1163
          33.0604
          33.0548
          33.0387
          33.0238
          33.0114
          33.0026
          32.9995
          32.2689
          31.411
          30.1686
          27.8609
          19.0202
          32.8881
          32.9046
          32.917
          32.929
          32.9406
          32.9487
          32.9614
          32.9788
          33.0013
          33.0292
          33.0735
          33.1604
          33.2112
          33.2469
          33.2681
          33.2751
          33.2679
          33.2458
          33.2077
          33.1324
          33.0921
          33.0658
          33.0438
          33.0261
          33.0129
          33.0043
          32.9916
          32.9789
          32.9666
          32.954
          32.9375
          32.8947
          32.9061
          32.9177
          32.9295
          32.9418
          32.9556
          32.9724
          32.9944
          33.0231
          33.0616
          33.113
          33.1687
          33.2193
          33.2545
          33.2757
          33.2827
          33.2756
          33.2543
          33.2171
          33.172
          33.1265
          33.0896
          33.0603
          33.0375
          33.0198
          33.0052
          32.992
          32.9793
          32.9673
          32.9556
          32.9441
          32.902
          32.9092
          32.9189
          32.9304
          32.9438
          32.9596
          32.9792
          33.0044
          33.0373
          33.0809
          33.1372
          33.1954
          33.2427
          33.2773
          33.2982
          33.3053
          33.2986
          33.2783
          33.2459
          33.2035
          33.1534
          33.1064
          33.0713
          33.0447
          33.024
          33.0071
          32.9926
          32.9798
          32.9683
          32.9586
          32.9514
          32.9073
          32.9105
          32.9194
          32.9309
          32.9446
          32.961
          32.9815
          33.0078
          33.0422
          33.0873
          33.1487
          33.2111
          33.2583
          33.2925
          33.3133
          33.3204
          33.3139
          33.2942
          33.2628
          33.2207
          33.1655
          33.1125
          33.0752
          33.0472
          33.0255
          33.0079
          32.993
          32.98
          32.9688
          32.9599
          32.9568
        </DataArray>
      </PointData>
      <CellData>
      </CellData>
      <Points>
        <DataArray type="Float32" NumberOfComponents="3" format="ascii">
          0.039 0.00195 0.0
          0.0377 0.00195 0.0
          0.0364 0.00195 0.0
          0.0351 0.00195 0.0
          0.0338 0.00195 0.0
          0.0325 0.00195 0.0
          0.0312 0.00195 0.0
          0.0299 0.00195 0.0
          0.0286 0.00195 0.0
          0.0273 0.00195 0.0
          0.026 0.00195 0.0
          0.0247 0.00195 0.0
          0.0234 0.00195 0.0
          0.0221 0.00195 0.0
          0.0208 0.00195 0.0
          0.0195 0.00195 0.0
          0.0182 0.00195 0.0
          0.0169 0.00195 0.0
          0.0156 0.00195 0.0
          0.0143 0.00195 0.0
          0.013 0.00195 0.0
          0.0117 0.00195 0.0
          0.0104 0.00195 0.0
          0.0091 0.00195 0.0
          0.0078 0.00195 0.0
          0.0065 0.00195 0.0
          0.0052 0.00195 0.0
          0.0039 0.00195 0.0
          0.0026 0.00195 0.0
          0.0013 0.00195 0.0
          0 0.00195 0.0
          0.039 0.00065 0.0
          0.0377 0.00065 0.0
          0.0364 0.00065 0.0
          0.0351 0.00065 0.0
          0.0338 0.00065 0.0
          0.0325 0.00065 0.0
          0.0312 0.00065 0.0
          0.0299 0.00065 0.0
          0.0286 0.00065 0.0
          0.0273 0.00065 0.0
          0.026 0.00065 0.0
          0.0247 0.00065 0.0
          0.0234 0.00065 0.0
          0.0221 0.00065 0.0
          0.0208 0.00065 0.0
          0.0195 0.00065 0.0
          0.0182 0.00065 0.0
          0.0169 0.00065 0.0
          0.0156 0.00065 0.0
          0.0143 0.00065 0.0
          0.013 0.00065 0.0
          0.0117 0.00065 0.0
          0.0104 0.00065 0.0
          0.0091 0.00065 0.0
          0.0078 0.00065 0.0
          0.0065 0.00065 0.0
          0.0052 0.00065 0.0
          0.0039 0.00065 0.0
          0.0026 0.00065 0.0
          0.0013 0.00065 0.0
          0 0.00065 0.0
          0.039 -0.00065 0.0
          0.0377 -0.00065 0.0
          0.0364 -0.00065 0.0
          0.0351 -0.00065 0.0
          0.0338 -0.00065 0.0
          0.0325 -0.00065 0.0
          0.0312 -0.00065 0.0
          0.0299 -0.00065 0.0
          0.0286 -0.00065 0.0
          0.0273 -0.00065 0.0
          0.026 -0.00065 0.0
          0.0247 -0.00065 0.0
          0.0234 -0.00065 0.0
          0.0221 -0.00065 0.0
          0.0208 -0.00065 0.0
          0.0195 -0.00065 0.0
          0.0182 -0.00065 0.0
          0.0169 -0.00065 0.0
          0.0156 -0.00065 0.0
          0.0143 -0.00065 0.0
          0.013 -0.00065 0.0
          0.0117 -0.00065 0.0
          0.0104 -0.00065 0.0
          0.0091 -0.00065 0.0
          0.0078 -0.00065 0.0
          0.0065 -0.00065 0.0
          0.0052 -0.00065 0.0
          0.0039 -0.00065 0.0
          0.0026 -0.00065 0.0
          0.0013 -0.00065 0.0
          0 -0.00065 0.0
          0.039 -0.00195 0.0
          0.0377 -0.00195 0.0
          0.0364 -0.00195 0.0
          0.0351 -0.00195 0.0
          0.0338 -0.00195 0.0
          0.0325 -0.00195 0.0
          0.0312 -0.00195 0.0
          0.0299 -0.00195 0.0
          0.0286 -0.00195 0.0
          0.0273 -0.00195 0.0
          0.026 -0.00195 0.0
          0.0247 -0.00195 0.0
          0.0234 -0.00195 0.0
          0.0221 -0.00195 0.0
          0.0208 -0.00195 0.0
          0.0195 -0.00195 0.0
          0.0182 -0.00195 0.0
          0.0169 -0.00195 0.0
          0.0156 -0.00195 0.0
          0.0143 -0.00195 0.0
          0.013 -0.00195 0.0
          0.0117 -0.00195 0.0
          0.0104 -0.00195 0.0
          0.0091 -0.00195 0.0
          0.0078 -0.00195 0.0
          0.0065 -0.00195 0.0
          0.0052 -0.00195 0.0
          0.0039 -0.00195 0.0
          0.0026 -0.00195 0.0
          0.0013 -0.00195 0.0
          0 -0.00195 0.0
          0.039 -0.00325 0.0
          0.0377 -0.00325 0.0
          0.0364 -0.00325 0.0
          0.0351 -0.00325 0.0
          0.0338 -0.00325 0.0
          0.0325 -0.00325 0.0
          0.0312 -0.00325 0.0
          0.0299 -0.00325 0.0
          0.0286 -0.00325 0.0
          0.0273 -0.00325 0.0
          0.026 -0.00325 0.0
          0.0247 -0.00325 0.0
          0.0234 -0.00325 0.0
          0.0221 -0.00325 0.0
          0.0208 -0.00325 0.0
          0.0195 -0.00325 0.0
          0.0182 -0.00325 0.0
          0.0169 -0.00325 0.0
          0.0156 -0.00325 0.0
          0.0143 -0.00325 0.0
          0.013 -0.00325 0.0
          0.0117 -0.00325 0.0
          0.0104 -0.00325 0.0
          0.0091 -0.00325 0.0
          0.0078 -0.00325 0.0
          0.0065 -0.00325 0.0
          0.0052 -0.00325 0.0
          0.0039 -0.00325 0.0
          0.0026 -0.00325 0.0
          0.0013 -0.00325 0.0
          0 -0.00325 0.0
          0.039 -0.00455 0.0
          0.0377 -0.00455 0.0
          0.0364 -0.00455 0.0
          0.0351 -0.00455 0.0
          0.0338 -0.00455 0.0
          0.0325 -0.00455 0.0
          0.0312 -0.00455 0.0
          0.0299 -0.00455 0.0
          0.0286 -0.00455 0.0
          0.0273 -0.00455 0.0
          0.026 -0.00455 0.0
          0.0247 -0.00455 0.0
          0.0234 -0.00455 0.0
          0.0221 -0.00455 0.0
          0.0208 -0.00455 0.0
          0.0195 -0.00455 0.0
          0.0182 -0.00455 0.0
          0.0169 -0.00455 0.0
          0.0156 -0.00455 0.0
          0.0143 -0.00455 0.0
          0.013 -0.00455 0.0
          0.0117 -0.00455 0.0
          0.0104 -0.00455 0.0
          0.0091 -0.00455 0.0
          0.0078 -0.00455 0.0
          0.0065 -0.00455 0.0
          0.0052 -0.00455 0.0
          0.0039 -0.00455 0.0
          0.0026 -0.00455 0.0
          0.0013 -0.00455 0.0
          0 -0.00455 0.0
          0.039 -0.00585 0.0
          0.0377 -0.00585 0.0
          0.0364 -0.00585 0.0
          0.0351 -0.00585 0.0
          0.0338 -0.00585 0.0
          0.0325 -0.00585 0.0
          0.0312 -0.00585 0.0
          0.0299 -0.00585 0.0
          0.0286 -0.00585 0.0
          0.0273 -0.00585 0.0
          0.026 -0.00585 0.0
          0.0247 -0.00585 0.0
          0.0234 -0.00585 0.0
          0.0221 -0.00585 0.0
          0.0208 -0.00585 0.0
          0.0195 -0.00585 0.0
          0.0182 -0.00585 0.0
          0.0169 -0.00585 0.0
          0.0156 -0.00585 0.0
          0.0143 -0.00585 0.0
          0.013 -0.00585 0.0
          0.0117 -0.00585 0.0
          0.0104 -0.00585 0.0
          0.0091 -0.00585 0.0
          0.0078 -0.00585 0.0
          0.0065 -0.00585 0.0
          0.0052 -0.00585 0.0
          0.0039 -0.00585 0.0
          0.0026 -0.00585 0.0
          0.0013 -0.00585 0.0
          0 -0.00585 0.0
          0.039 -0.00715 0.0
          0.0377 -0.00715 0.0
          0.0364 -0.00715 0.0
          0.0351 -0.00715 0.0
          0.0338 -0.00715 0.0
          0.0325 -0.00715 0.0
          0.0312 -0.00715 0.0
          0.0299 -0.00715 0.0
          0.0286 -0.00715 0.0
          0.0273 -0.00715 0.0
          0.026 -0.00715 0.0
          0.0247 -0.00715 0.0
          0.0234 -0.00715 0.0
          0.0221 -0.00715 0.0
          0.0208 -0.00715 0.0
          0.0195 -0.00715 0.0
          0.0182 -0.00715 0.0
          0.0169 -0.00715 0.0
          0.0156 -0.00715 0.0
          0.0143 -0.00715 0.0
          0.013 -0.00715 0.0
          0.0117 -0.00715 0.0
          0.0104 -0.00715 0.0
          0.0091 -0.00715 0.0
          0.0078 -0.00715 0.0
          0.0065 -0.00715 0.0
          0.0052 -0.00715 0.0
          0.0039 -0.00715 0.0
          0.0026 -0.00715 0.0
          0.0013 -0.00715 0.0
          0 -0.00715 0.0
          0.039 -0.00845 0.0
          0.0377 -0.00845 0.0
          0.0364 -0.00845 0.0
          0.0351 -0.00845 0.0
          0.0338 -0.00845 0.0
          0.0325 -0.00845 0.0
          0.0312 -0.00845 0.0
          0.0299 -0.00845 0.0
          0.0286 -0.00845 0.0
          0.0273 -0.00845 0.0
          0.026 -0.00845 0.0
          0.0247 -0.00845 0.0
          0.0234 -0.00845 0.0
          0.0221 -0.00845 0.0
          0.0208 -0.00845 0.0
          0.0195 -0.00845 0.0
          0.0182 -0.00845 0.0
          0.0169 -0.00845 0.0
          0.0156 -0.00845 0.0
          0.0143 -0.00845 0.0
          0.013 -0.00845 0.0
          0.0117 -0.00845 0.0
          0.0104 -0.00845 0.0
          0.0091 -0.00845 0.0
          0.0078 -0.00845 0.0
          0.0065 -0.00845 0.0
          0.0052 -0.00845 0.0
          0.0039 -0.00845 0.0
          0.0026 -0.00845 0.0
          0.0013 -0.00845 0.0
          0 -0.00845 0.0
          0.039 -0.00975 0.0
          0.0377 -0.00975 0.0
          0.0364 -0.00975 0.0
          0.0351 -0.00975 0.0
          0.0338 -0.00975 0.0
          0.0325 -0.00975 0.0
          0.0312 -0.00975 0.0
          0.0299 -0.00975 0.0
          0.0286 -0.00975 0.0
          0.0273 -0.00975 0.0
          0.026 -0.00975 0.0
          0.0247 -0.00975 0.0
          0.0234 -0.00975 0.0
          0.0221 -0.00975 0.0
          0.0208 -0.00975 0.0
          0.0195 -0.00975 0.0
          0.0182 -0.00975 0.0
          0.0169 -0.00975 0.0
          0.0156 -0.00975 0.0
          0.0143 -0.00975 0.0
          0.013 -0.00975 0.0
          0.0117 -0.00975 0.0
          0.0104 -0.00975 0.0
          0.0091 -0.00975 0.0
          0.0078 -0.00975 0.0
          0.0065 -0.00975 0.0
          0.0052 -0.00975 0.0
          0.0039 -0.00975 0.0
          0.0026 -0.00975 0.0
          0.0013 -0.00975 0.0
          0 -0.00975 0.0
          0.039 -0.01105 0.0
          0.0377 -0.01105 0.0
          0.0364 -0.01105 0.0
          0.0351 -0.01105 0.0
          0.0338 -0.01105 0.0
          0.0325 -0.01105 0.0
          0.0312 -0.01105 0.0
          0.0299 -0.01105 0.0
          0.0286 -0.01105 0.0
          0.0273 -0.01105 0.0
          0.026 -0.01105 0.0
          0.0247 -0.01105 0.0
          0.0234 -0.01105 0.0
          0.0221 -0.01105 0.0
          0.0208 -0.01105 0.0
          0.0195 -0.01105 0.0
          0.0182 -0.01105 0.0
          0.0169 -0.01105 0.0
          0.0156 -0.01105 0.0
          0.0143 -0.01105 0.0
          0.013 -0.01105 0.0
          0.0117 -0.01105 0.0
          0.0104 -0.01105 0.0
          0.0091 -0.01105 0.0
          0.0078 -0.01105 0.0
          0.0065 -0.01105 0.0
          0.0052 -0.01105 0.0
          0.0039 -0.01105 0.0
          0.0026 -0.01105 0.0
          0.0013 -0.01105 0.0
          0 -0.01105 0.0
          0.039 -0.01235 0.0
          0.0377 -0.01235 0.0
          0.0364 -0.01235 0.0
          0.0351 -0.01235 0.0
          0.0338 -0.01235 0.0
          0.0325 -0.01235 0.0
          0.0312 -0.01235 0.0
          0.0299 -0.01235 0.0
          0.0286 -0.01235 0.0
          0.0273 -0.01235 0.0
          0.026 -0.01235 0.0
          0.0247 -0.01235 0.0
          0.0234 -0.01235 0.0
          0.0221 -0.01235 0.0
          0.0208 -0.01235 0.0
          0.0195 -0.01235 0.0
          0.0182 -0.01235 0.0
          0.0169 -0.01235 0.0
          0.0156 -0.01235 0.0
          0.0143 -0.01235 0.0
          0.013 -0.01235 0.0
          0.0117 -0.01235 0.0
          0.0104 -0.01235 0.0
          0.0091 -0.01235 0.0
          0.0078 -0.01235 0.0
          0.0065 -0.01235 0.0
          0.0052 -0.01235 0.0
          0.0039 -0.01235 0.0
          0.0026 -0.01235 0.0
          0.0013 -0.01235 0.0
          0 -0.01235 0.0
          0.039 -0.01365 0.0
          0.0377 -0.01365 0.0
          0.0364 -0.01365 0.0
          0.0351 -0.01365 0.0
          0.0338 -0.01365 0.0
          0.0325 -0.01365 0.0
          0.0312 -0.01365 0.0
          0.0299 -0.01365 0.0
          0.0286 -0.01365 0.0
          0.0273 -0.01365 0.0
          0.026 -0.01365 0.0
          0.0247 -0.01365 0.0
          0.0234 -0.01365 0.0
          0.0221 -0.01365 0.0
          0.0208 -0.01365 0.0
          0.0195 -0.01365 0.0
          0.0182 -0.01365 0.0
          0.0169 -0.01365 0.0
          0.0156 -0.01365 0.0
          0.0143 -0.01365 0.0
          0.013 -0.01365 0.0
          0.0117 -0.01365 0.0
          0.0104 -0.01365 0.0
          0.0091 -0.01365 0.0
          0.0078 -0.01365 0.0
          0.0065 -0.01365 0.0
          0.0052 -0.01365 0.0
          0.0039 -0.01365 0.0
          0.0026 -0.01365 0.0
          0.0013 -0.01365 0.0
          0 -0.01365 0.0
          0.039 -0.01495 0.0
          0.0377 -0.01495 0.0
          0.0364 -0.01495 0.0
          0.0351 -0.01495 0.0
          0.0338 -0.01495 0.0
          0.0325 -0.01495 0.0
          0.0312 -0.01495 0.0
          0.0299 -0.01495 0.0
          0.0286 -0.01495 0.0
          0.0273 -0.01495 0.0
          0.026 -0.01495 0.0
          0.0247 -0.01495 0.0
          0.0234 -0.01495 0.0
          0.0221 -0.01495 0.0