<?xml version="1.0"?>
<VTKFile type="UnstructuredGrid" version="0.1" byte_order="LittleEndian">
  <UnstructuredGrid>
    <Piece NumberOfPoints="961" NumberOfCells="900">
      <PointData Scalars="Temperature">
        <DataArray type="Float32" Name="Temperature" format="ascii">
          21.0028
          21.0474
          21.0936
          21.1397
          21.1787
          21.2059
          21.2197
          21.2244
          21.2223
          21.214
          21.1977
          21.1763
          21.1545
          21.1384
          21.1302
          21.1303
          21.1388
          21.1551
          21.1771
          21.1988
          21.2152
          21.2237
          21.226
          21.2217
          21.2091
          21.1843
          21.1493
          21.1089
          21.07
          21.0346
          21.0021
          21.046
          21.7629
          22.5316
          23.3032
          23.9759
          24.4137
          24.6282
          24.6845
          24.662
          24.5288
          24.2627
          23.8824
          23.5114
          23.2376
          23.1086
          23.1105
          23.2433
          23.5214
          23.8968
          24.2809
          24.5498
          24.6848
          24.7095
          24.659
          24.4619
          24.0623
          23.4559
          22.7775
          22.1283
          21.5596
          21.0337
          21.0855
          22.4221
          23.8754
          25.6106
          27.0239
          27.9365
          28.146
          28.2006
          28.1787
          28.0485
          27.4505
          26.6086
          25.7022
          25.1955
          24.9632
          24.9666
          25.2061
          25.7209
          26.6371
          27.4872
          28.0906
          28.2227
          28.2467
          28.1977
          28.0052
          27.1616
          25.8762
          24.3309
          23.1037
          22.0428
          21.0628
          21.1183
          22.9665
          24.9933
          27.4174
          31.7713
          31.7719
          31.7721
          31.7722
          31.7722
          31.7722
          31.7718
          28.7397
          27.5568
          26.8932
          26.5975
          26.6023
          26.9079
          27.5827
          28.7793
          31.8366
          31.837
          31.8371
          31.8371
          31.837
          31.8368
          31.8363
          27.7677
          25.6247
          23.9182
          22.4505
          21.0874
          21.1421
          23.3575
          25.7406
          28.5623
          31.7725
          31.7727
          31.7729
          31.773
          31.773
          31.773
          31.7729
          30.138
          28.929
          28.2587
          27.9518
          27.9576
          28.2764
          28.9598
          30.1847
          31.8377
          31.8378
          31.8379
          31.8379
          31.8378
          31.8376
          31.8374
          28.9734
          26.5122
          24.523
          22.762
          21.1065
          21.1572
          23.5947
          26.151
          28.8898
          31.7745
          31.7747
          31.7748
          31.7749
          31.7749
          31.7749
          31.7749
          30.7179
          29.8557
          29.2843
          29.0128
          29.0192
          29.3039
          29.8893
          30.7666
          31.8397
          31.8397
          31.8398
          31.8398
          31.8397
          31.8395
          31.8394
          29.3536
          27.0284
          24.9172
          22.9765
          21.1198
          21.1653
          23.7186
          26.3295
          29.0228
          31.7775
          31.7777
          31.7778
          31.7779
          31.7779
          31.7779
          31.7779
          31.0597
          30.4503
          30.022
          29.8072
          29.814
          30.0426
          30.4852
          31.1094
          31.8427
          31.8427
          31.8428
          31.8427
          31.8426
          31.8425
          31.8424
          29.5258
          27.283
          25.1482
          23.1102
          21.1282
          21.1692
          23.7762
          26.41
          29.0815
          31.7815
          31.7817
          31.7818
          31.7819
          31.782
          31.782
          31.782
          31.2826
          30.8525
          30.5428
          30.3847
          30.3917
          30.5639
          30.888
          31.3326
          31.8468
          31.8468
          31.8468
          31.8467
          31.8467
          31.8466
          31.8464
          29.6117
          27.4149
          25.2745
          23.1875
          21.1332
          21.171
          23.8028
          26.4473
          29.1097
          31.7867
          31.7868
          31.7869
          31.787
          31.7871
          31.7871
          31.7871
          31.4357
          31.1317
          30.9111
          30.7982
          30.8053
          30.9324
          31.1674
          31.4859
          31.8519
          31.8519
          31.8519
          31.8518
          31.8518
          31.8517
          31.8515
          29.6578
          27.4851
          25.343
          23.2304
          21.136
          21.1719
          23.8157
          26.4658
          29.1251
          31.7928
          31.793
          31.7931
          31.7932
          31.7932
          31.7933
          31.7933
          31.544
          31.3287
          31.1723
          31.0931
          31.1003
          31.1938
          31.3645
          31.5943
          31.858
          31.858
          31.858
          31.858
          31.8579
          31.8578
          31.8577
          29.6845
          27.524
          25.3808
          23.2541
          21.1375
          21.1723
          23.8226
          26.4762
          29.1353
          31.8
          31.8002
          31.8003
          31.8004
          31.8005
          31.8005
          31.8005
          31.6225
          31.4694
          31.3589
          31.3038
          31.311
          31.3804
          31.5053
          31.6728
          31.8652
          31.8652
          31.8652
          31.8652
          31.8651
          31.865
          31.8649
          29.7016
          27.5468
          25.4024
          23.2675
          21.1384
          21.1726
          23.8269
          26.4834
          29.1436
          31.8083
          31.8084
          31.8086
          31.8087
          31.8087
          31.8088
          31.8088
          31.6807
          31.5714
          31.4932
          31.4553
          31.4625
          31.5148
          31.6073
          31.731
          31.8735
          31.8735
          31.8735
          31.8734
          31.8733
          31.8732
          31.8731
          29.7143
          27.5616
          25.4156
          23.2755
          21.1389
          21.1728
          23.8304
          26.4895
          29.1516
          31.8176
          31.8178
          31.8179
          31.818
          31.8181
          31.8181
          31.8181
          31.7252
          31.6467
          31.5914
          31.5656
          31.5728
          31.6129
          31.6826
          31.7754
          31.8828
          31.8828
          31.8827
          31.8827
          31.8826
          31.8825
          31.8824
          29.725
          27.5725
          25.4248
          23.2809
          21.1393
          21.173
          23.8335
          26.4954
          29.1599
          31.8279
          31.8281
          31.8282
          31.8284
          31.8284
          31.8285
          31.8285
          31.7603
          31.7036
          31.6645
          31.6473
          31.6544
          31.686
          31.7395
          31.8106
          31.8931
          31.8931
          31.8931
          31.893
          31.8929
          31.8928
          31.8927
          29.7351
          27.5818
          25.4321
          23.2851
          21.1395
          21.1732
          23.8368
          26.5016
          29.1687
          31.8393
          31.8395
          31.8397
          31.8398
          31.8399
          31.8399
          31.8399
          31.7894
          31.7481
          31.7204
          31.7093
          31.7165
          31.742
          31.784
          31.8396
          31.9045
          31.9045
          31.9045
          31.9044
          31.9043
          31.9042
          31.904
          29.7456
          27.5909
          25.4389
          23.2889
          21.1398
          21.1735
          23.8403
          26.5082
          29.1783
          31.8518
          31.8519
          31.8521
          31.8522
          31.8524
          31.8524
          31.8524
          31.8145
          31.7844
          31.7649
          31.7582
          31.7654
          31.7864
          31.8202
          31.8647
          31.917
          31.917
          31.9169
          31.9168
          31.9167
          31.9166
          31.9164
          29.7569
          27.6005
          25.4462
          23.2929
          21.14
          21.1737
          23.8442
          26.5156
          29.1888
          31.8652
          31.8654
          31.8656
          31.8658
          31.8659
          31.866
          31.866
          31.8373
          31.8154
          31.8019
          31.7984
          31.8056
          31.8234
          31.8512
          31.8875
          31.9305
          31.9305
          31.9304
          31.9303
          31.9301
          31.93
          31.9298
          29.7696
          27.6118
          25.4548
          23.2977
          21.1403
          21.174
          23.8489
          26.5241
          29.2005
          31.8797
          31.8799
          31.8801
          31.8803
          31.8805
          31.8807
          31.8807
          31.8591
          31.8433
          31.8344
          31.8333
          31.8405
          31.8559
          31.879
          31.9092
          31.9451
          31.9451
          31.945
          31.9448
          31.9446
          31.9444
          31.9442
          29.7844
          27.6259
          25.4662
          23.3043
          21.1408
          21.1744
          23.8548
          26.5345
          29.214
          31.8952
          31.8954
          31.8956
          31.896
          31.8962
          31.8964
          31.8965
          31.8806
          31.8698
          31.8647
          31.8655
          31.8727
          31.8861
          31.9055
          31.9306
          31.9608
          31.9608
          31.9606
          31.9603
          31.9601
          31.9598
          31.9596
          29.803
          27.6453
          25.4827
          23.3141
          21.1414
          21.175
          23.8634
          26.5488
          29.2305
          31.9115
          31.9118
          31.9122
          31.9126
          31.913
          31.9133
          31.9134
          31.9027
          31.8963
          31.8944
          31.897
          31.9042
          31.9158
          31.932
          31.9527
          31.9777
          31.9776
          31.9773
          31.9769
          31.9765
          31.9762
          31.9759
          29.8277
          27.6742
          25.5087
          23.3299
          21.1425
          21.1756
          23.8779
          26.5709
          29.2528
          31.9288
          31.9291
          31.9296
          31.9303
          31.931
          31.9315
          31.9317
          31.926
          31.9241
          31.9254
          31.9297
          31.9368
          31.9468
          31.9597
          31.9759
          31.9958
          31.9957
          31.9952
          31.9946
          31.9939
          31.9934
          31.9931
          29.8635
          27.7206
          25.5523
          23.3572
          21.1439
          21.179
          23.9045
          26.6107
          29.2875
          31.9467
          31.9471
          31.948
          31.9491
          31.9502
          31.951
          31.9513
          31.9514
          31.9543
          31.9591
          31.9652
          31.9723
          31.9804
          31.9898
          32.0012
          32.0154
          32.0151
          32.0143
          32.0132
          32.0122
          32.0113
          32.011
          29.9196
          27.7998
          25.6297
          23.4056
          21.1486
          21.1759
          23.9624
          26.6884
          29.3496
          31.9651
          31.9657
          31.967
          31.9689
          31.9707
          31.9721
          31.9726
          31.9796
          31.9883
          31.9973
          32.0055
          32.0126
          32.0185
          32.0238
          32.0293
          32.0365
          32.0361
          32.0347
          32.0329
          32.0312
          32.0299
          32.0293
          30.0124
          27.9405
          25.7703
          23.4987
          21.1477
          21.2147
          24.0734
          26.8572
          29.4706
          31.9835
          31.9844
          31.9866
          31.9897
          31.9928
          31.9951
          31.996
          32.0121
          32.0281
          32.042
          32.0527
          32.0597
          32.0631
          32.0634
          32.0616
          32.0598
          32.059
          32.0567
          32.0536
          32.0507
          32.0485
          32.0477
          30.1712
          28.1937
          26.0382
          23.6634
          21.19
          21.0976
          24.3895
          27.2063
          29.7264
          32.0014
          32.0028
          32.0063
          32.0113
          32.0167
          32.0209
          32.0225
          32.0507
          32.0759
          32.0958
          32.1093
          32.1163
          32.1168
          32.111
          32.0999
          32.086
          32.0845
          32.0804
          32.0752
          32.0703
          32.0669
          32.0656
          30.4378
          28.6571
          26.5332
          24.0565
          21.077
          21.7491
          24.8549
          28.0685
          30.2193
          32.0178
          32.0198
          32.0253
          32.0334
          32.0428
          32.0505
          32.0537
          32.0986
          32.1354
          32.1617
          32.1781
          32.1851
          32.1826
          32.1702
          32.1475
          32.1169
          32.1138
          32.1064
          32.0973
          32.0893
          32.0839
          32.0819
          30.8519
          29.448
          27.5943
          24.6228
          21.7375
          19.1853
          27.445
          29.7042
          31.0131
          32.0312
          32.0341
          32.0427
          32.055
          32.0703
          32.0872
          32.0931
          32.1633
          32.2112
          32.2429
          32.262
          32.2689
          32.2638
          32.2457
          32.2113
          32.1555
          32.15
          32.134
          32.1192
          32.1069
          32.0982
          32.0952
          31.4192
          30.6259
          29.4772
          27.3437
          19.1693
          31.9885
          32.0038
          32.0154
          32.0267
          32.0373
          32.0449
          32.0574
          32.0746
          32.0969
          32.1247
          32.169
          32.2558
          32.3065
          32.3422
          32.3634
          32.3704
          32.3631
          32.3411
          32.303
          32.2277
          32.1875
          32.1612
          32.1393
          32.1219
          32.1089
          32.1007
          32.0889
          32.077
          32.0654
          32.0536
          32.0383
          31.9946
          32.0052
          32.0161
          32.0272
          32.0388
          32.052
          32.0685
          32.0902
          32.1188
          32.1571
          32.2085
          32.2641
          32.3146
          32.3498
          32.3709
          32.378
          32.3709
          32.3495
          32.3124
          32.2673
          32.2219
          32.1851
          32.156
          32.1334
          32.1161
          32.1019
          32.0893
          32.0773
          32.066
          32.0551
          32.0444
          32.0014
          32.0081
          32.0172
          32.0281
          32.0409
          32.0562
          32.0755
          32.1003
          32.1331
          32.1765
          32.2327
          32.2908
          32.338
          32.3726
          32.3935
          32.4006
          32.3939
          32.3736
          32.3412
          32.2989
          32.2489
          32.202
          32.1671
          32.1408
          32.1204
          32.104
          32.0901
          32.0778
          32.067
          32.0579
          32.0512
          32.0063
          32.0093
          32.0177
          32.0286
          32.0417
          32.0577
          32.0778
          32.1038
          32.138
          32.183
          32.2442
          32.3066
          32.3536
          32.3878
          32.4086
          32.4157
          32.4091
          32.3895
          32.3581
          32.3161
          32.261
          32.2081
          32.171
          32.1433
          32.1219
          32.1048
          32.0904
          32.0781
          32.0674
          32.0591
          32.0561
        </DataArray>
      </PointData>
      <CellData>
      </CellData>
      <Points>
        <DataArray type="Float32" NumberOfComponents="3" format="ascii">
          0.039 0.00195 0.0
          0.0377 0.00195 0.0
          0.0364 0.00195 0.0
          0.0351 0.00195 0.0
          0.0338 0.00195 0.0
          0.0325 0.00195 0.0
          0.0312 0.00195 0.0
          0.0299 0.00195 0.0
          0.0286 0.00195 0.0
          0.0273 0.00195 0.0
          0.026 0.00195 0.0
          0.0247 0.00195 0.0
          0.0234 0.00195 0.0
          0.0221 0.00195 0.0
          0.0208 0.00195 0.0
          0.0195 0.00195 0.0
          0.0182 0.00195 0.0
          0.0169 0.00195 0.0
          0.0156 0.00195 0.0
          0.0143 0.00195 0.0
          0.013 0.00195 0.0
          0.0117 0.00195 0.0
          0.0104 0.00195 0.0
          0.0091 0.00195 0.0
          0.0078 0.00195 0.0
          0.0065 0.00195 0.0
          0.0052 0.00195 0.0
          0.0039 0.00195 0.0
          0.0026 0.00195 0.0
          0.0013 0.00195 0.0
          0 0.00195 0.0
          0.039 0.00065 0.0
          0.0377 0.00065 0.0
          0.0364 0.00065 0.0
          0.0351 0.00065 0.0
          0.0338 0.00065 0.0
          0.0325 0.00065 0.0
          0.0312 0.00065 0.0
          0.0299 0.00065 0.0
          0.0286 0.00065 0.0
          0.0273 0.00065 0.0
          0.026 0.00065 0.0
          0.0247 0.00065 0.0
          0.0234 0.00065 0.0
          0.0221 0.00065 0.0
          0.0208 0.00065 0.0
          0.0195 0.00065 0.0
          0.0182 0.00065 0.0
          0.0169 0.00065 0.0
          0.0156 0.00065 0.0
          0.0143 0.00065 0.0
          0.013 0.00065 0.0
          0.0117 0.00065 0.0
          0.0104 0.00065 0.0
          0.0091 0.00065 0.0
          0.0078 0.00065 0.0
          0.0065 0.00065 0.0
          0.0052 0.00065 0.0
          0.0039 0.00065 0.0
          0.0026 0.00065 0.0
          0.0013 0.00065 0.0
          0 0.00065 0.0
          0.039 -0.00065 0.0
          0.0377 -0.00065 0.0
          0.0364 -0.00065 0.0
          0.0351 -0.00065 0.0
          0.0338 -0.00065 0.0
          0.0325 -0.00065 0.0
          0.0312 -0.00065 0.0
          0.0299 -0.00065 0.0
          0.0286 -0.00065 0.0
          0.0273 -0.00065 0.0
          0.026 -0.00065 0.0
          0.0247 -0.00065 0.0
          0.0234 -0.00065 0.0
          0.0221 -0.00065 0.0
          0.0208 -0.00065 0.0
          0.0195 -0.00065 0.0
          0.0182 -0.00065 0.0
          0.0169 -0.00065 0.0
          0.0156 -0.00065 0.0
          0.0143 -0.00065 0.0
          0.013 -0.00065 0.0
          0.0117 -0.00065 0.0
          0.0104 -0.00065 0.0
          0.0091 -0.00065 0.0
          0.0078 -0.00065 0.0
          0.0065 -0.00065 0.0
          0.0052 -0.00065 0.0
          0.0039 -0.00065 0.0
          0.0026 -0.00065 0.0
          0.0013 -0.00065 0.0
          0 -0.00065 0.0
          0.039 -0.00195 0.0
          0.0377 -0.00195 0.0
          0.0364 -0.00195 0.0
          0.0351 -0.00195 0.0
          0.0338 -0.00195 0.0
          0.0325 -0.00195 0.0
          0.0312 -0.00195 0.0
          0.0299 -0.00195 0.0
          0.0286 -0.00195 0.0
          0.0273 -0.00195 0.0
          0.026 -0.00195 0.0
          0.0247 -0.00195 0.0
          0.0234 -0.00195 0.0
          0.0221 -0.00195 0.0
          0.0208 -0.00195 0.0
          0.0195 -0.00195 0.0
          0.0182 -0.00195 0.0
          0.0169 -0.00195 0.0
          0.0156 -0.00195 0.0
          0.0143 -0.00195 0.0
          0.013 -0.00195 0.0
          0.0117 -0.00195 0.0
          0.0104 -0.00195 0.0
          0.0091 -0.00195 0.0
          0.0078 -0.00195 0.0
          0.0065 -0.00195 0.0
          0.0052 -0.00195 0.0
          0.0039 -0.00195 0.0
          0.0026 -0.00195 0.0
          0.0013 -0.00195 0.0
          0 -0.00195 0.0
          0.039 -0.00325 0.0
          0.0377 -0.00325 0.0
          0.0364 -0.00325 0.0
          0.0351 -0.00325 0.0
          0.0338 -0.00325 0.0
          0.0325 -0.00325 0.0
          0.0312 -0.00325 0.0
          0.0299 -0.00325 0.0
          0.0286 -0.00325 0.0
          0.0273 -0.00325 0.0
          0.026 -0.00325 0.0
          0.0247 -0.00325 0.0
          0.0234 -0.00325 0.0
          0.0221 -0.00325 0.0
          0.0208 -0.00325 0.0
          0.0195 -0.00325 0.0
          0.0182 -0.00325 0.0
          0.0169 -0.00325 0.0
          0.0156 -0.00325 0.0
          0.0143 -0.00325 0.0
          0.013 -0.00325 0.0
          0.0117 -0.00325 0.0
          0.0104 -0.00325 0.0
          0.0091 -0.00325 0.0
          0.0078 -0.00325 0.0
          0.0065 -0.00325 0.0
          0.0052 -0.00325 0.0
          0.0039 -0.00325 0.0
          0.0026 -0.00325 0.0
          0.0013 -0.00325 0.0
          0 -0.00325 0.0
          0.039 -0.00455 0.0
          0.0377 -0.00455 0.0
          0.0364 -0.00455 0.0
          0.0351 -0.00455 0.0
          0.0338 -0.00455 0.0
          0.0325 -0.00455 0.0
          0.0312 -0.00455 0.0
          0.0299 -0.00455 0.0
          0.0286 -0.00455 0.0
          0.0273 -0.00455 0.0
          0.026 -0.00455 0.0
          0.0247 -0.00455 0.0
          0.0234 -0.00455 0.0
          0.0221 -0.00455 0.0
          0.0208 -0.00455 0.0
          0.0195 -0.00455 0.0
          0.0182 -0.00455 0.0
          0.0169 -0.00455 0.0
          0.0156 -0.00455 0.0
          0.0143 -0.00455 0.0
          0.013 -0.00455 0.0
          0.0117 -0.00455 0.0
          0.0104 -0.00455 0.0
          0.0091 -0.00455 0.0
          0.0078 -0.00455 0.0
          0.0065 -0.00455 0.0
          0.0052 -0.00455 0.0
          0.0039 -0.00455 0.0
          0.0026 -0.00455 0.0
          0.0013 -0.00455 0.0
          0 -0.00455 0.0
          0.039 -0.00585 0.0
          0.0377 -0.00585 0.0
          0.0364 -0.00585 0.0
          0.0351 -0.00585 0.0
          0.0338 -0.00585 0.0
          0.0325 -0.00585 0.0
          0.0312 -0.00585 0.0
          0.0299 -0.00585 0.0
          0.0286 -0.00585 0.0
          0.0273 -0.00585 0.0
          0.026 -0.00585 0.0
          0.0247 -0.00585 0.0
          0.0234 -0.00585 0.0
          0.0221 -0.00585 0.0
          0.0208 -0.00585 0.0
          0.0195 -0.00585 0.0
          0.0182 -0.00585 0.0
          0.0169 -0.00585 0.0
          0.0156 -0.00585 0.0
          0.0143 -0.00585 0.0
          0.013 -0.00585 0.0
          0.0117 -0.00585 0.0
          0.0104 -0.00585 0.0
          0.0091 -0.00585 0.0
          0.0078 -0.00585 0.0
          0.0065 -0.00585 0.0
          0.0052 -0.00585 0.0
          0.0039 -0.00585 0.0
          0.0026 -0.00585 0.0
          0.0013 -0.00585 0.0
          0 -0.00585 0.0
          0.039 -0.00715 0.0
          0.0377 -0.00715 0.0
          0.0364 -0.00715 0.0
          0.0351 -0.00715 0.0
          0.0338 -0.00715 0.0
          0.0325 -0.00715 0.0
          0.0312 -0.00715 0.0
          0.0299 -0.00715 0.0
          0.0286 -0.00715 0.0
          0.0273 -0.00715 0.0
          0.026 -0.00715 0.0
          0.0247 -0.00715 0.0
          0.0234 -0.00715 0.0
          0.0221 -0.00715 0.0
          0.0208 -0.00715 0.0
          0.0195 -0.00715 0.0
          0.0182 -0.00715 0.0
          0.0169 -0.00715 0.0
          0.0156 -0.00715 0.0
          0.0143 -0.00715 0.0
          0.013 -0.00715 0.0
          0.0117 -0.00715 0.0
          0.0104 -0.00715 0.0
          0.0091 -0.00715 0.0
          0.0078 -0.00715 0.0
          0.0065 -0.00715 0.0
          0.0052 -0.00715 0.0
          0.0039 -0.00715 0.0
          0.0026 -0.00715 0.0
          0.0013 -0.00715 0.0
          0 -0.00715 0.0
          0.039 -0.00845 0.0
          0.0377 -0.00845 0.0
          0.0364 -0.00845 0.0
          0.0351 -0.00845 0.0
          0.0338 -0.00845 0.0
          0.0325 -0.00845 0.0
          0.0312 -0.00845 0.0
          0.0299 -0.00845 0.0
          0.0286 -0.00845 0.0
          0.0273 -0.00845 0.0
          0.026 -0.00845 0.0
          0.0247 -0.00845 0.0
          0.0234 -0.00845 0.0
          0.0221 -0.00845 0.0
          0.0208 -0.00845 0.0
          0.0195 -0.00845 0.0
          0.0182 -0.00845 0.0
          0.0169 -0.00845 0.0
          0.0156 -0.00845 0.0
          0.0143 -0.00845 0.0
          0.013 -0.00845 0.0
          0.0117 -0.00845 0.0
          0.0104 -0.00845 0.0
          0.0091 -0.00845 0.0
          0.0078 -0.00845 0.0
          0.0065 -0.00845 0.0
          0.0052 -0.00845 0.0
          0.0039 -0.00845 0.0
          0.0026 -0.00845 0.0
          0.0013 -0.00845 0.0
          0 -0.00845 0.0
          0.039 -0.00975 0.0
          0.0377 -0.00975 0.0
          0.0364 -0.00975 0.0
          0.0351 -0.00975 0.0
          0.0338 -0.00975 0.0
          0.0325 -0.00975 0.0
          0.0312 -0.00975 0.0
          0.0299 -0.00975 0.0
          0.0286 -0.00975 0.0
          0.0273 -0.00975 0.0
          0.026 -0.00975 0.0
          0.0247 -0.00975 0.0
          0.0234 -0.00975 0.0
          0.0221 -0.00975 0.0
          0.0208 -0.00975 0.0
          0.0195 -0.00975 0.0
          0.0182 -0.00975 0.0
          0.0169 -0.00975 0.0
          0.0156 -0.00975 0.0
          0.0143 -0.00975 0.0
          0.013 -0.00975 0.0
          0.0117 -0.00975 0.0
          0.0104 -0.00975 0.0
          0.0091 -0.00975 0.0
          0.0078 -0.00975 0.0
          0.0065 -0.00975 0.0
          0.0052 -0.00975 0.0
          0.0039 -0.00975 0.0
          0.0026 -0.00975 0.0
          0.0013 -0.00975 0.0
          0 -0.00975 0.0
          0.039 -0.01105 0.0
          0.0377 -0.01105 0.0
          0.0364 -0.01105 0.0
          0.0351 -0.01105 0.0
          0.0338 -0.01105 0.0
          0.0325 -0.01105 0.0
          0.0312 -0.01105 0.0
          0.0299 -0.01105 0.0
          0.0286 -0.01105 0.0
          0.0273 -0.01105 0.0
          0.026 -0.01105 0.0
          0.0247 -0.01105 0.0
          0.0234 -0.01105 0.0
          0.0221 -0.01105 0.0
          0.0208 -0.01105 0.0
          0.0195 -0.01105 0.0
          0.0182 -0.01105 0.0
          0.0169 -0.01105 0.0
          0.0156 -0.01105 0.0
          0.0143 -0.01105 0.0
          0.013 -0.01105 0.0
          0.0117 -0.01105 0.0
          0.0104 -0.01105 0.0
          0.0091 -0.01105 0.0
          0.0078 -0.01105 0.0
          0.0065 -0.01105 0.0
          0.0052 -0.01105 0.0
          0.0039 -0.01105 0.0
          0.0026 -0.01105 0.0
          0.0013 -0.01105 0.0
          0 -0.01105 0.0
          0.039 -0.01235 0.0
          0.0377 -0.01235 0.0
          0.0364 -0.01235 0.0
          0.0351 -0.01235 0.0
          0.0338 -0.01235 0.0
          0.0325 -0.01235 0.0
          0.0312 -0.01235 0.0
          0.0299 -0.01235 0.0
          0.0286 -0.01235 0.0
          0.0273 -0.01235 0.0
          0.026 -0.01235 0.0
          0.0247 -0.01235 0.0
          0.0234 -0.01235 0.0
          0.0221 -0.01235 0.0
          0.0208 -0.01235 0.0
          0.0195 -0.01235 0.0
          0.0182 -0.01235 0.0
          0.0169 -0.01235 0.0
          0.0156 -0.01235 0.0
          0.0143 -0.01235 0.0
          0.013 -0.01235 0.0
          0.0117 -0.01235 0.0
          0.0104 -0.01235 0.0
          0.0091 -0.01235 0.0
          0.0078 -0.01235 0.0
          0.0065 -0.01235 0.0
          0.0052 -0.01235 0.0
          0.0039 -0.01235 0.0
          0.0026 -0.01235 0.0
          0.0013 -0.01235 0.0
          0 -0.01235 0.0
          0.039 -0.01365 0.0
          0.0377 -0.01365 0.0
          0.0364 -0.01365 0.0
          0.0351 -0.01365 0.0
          0.0338 -0.01365 0.0
          0.0325 -0.01365 0.0
          0.0312 -0.01365 0.0
          0.0299 -0.01365 0.0
          0.0286 -0.01365 0.0
          0.0273 -0.01365 0.0
          0.026 -0.01365 0.0
          0.0247 -0.01365 0.0
          0.0234 -0.01365 0.0
          0.0221 -0.01365 0.0
          0.0208 -0.01365 0.0
          0.0195 -0.01365 0.0
          0.0182 -0.01365 0.0
          0.0169 -0.01365 0.0
          0.0156 -0.01365 0.0
          0.0143 -0.01365 0.0
          0.013 -0.01365 0.0
          0.0117 -0.01365 0.0
          0.0104 -0.01365 0.0
          0.0091 -0.01365 0.0
          0.0078 -0.01365 0.0
          0.0065 -0.01365 0.0
          0.0052 -0.01365 0.0
          0.0039 -0.01365 0.0
          0.0026 -0.01365 0.0
          0.0013 -0.01365 0.0
          0 -0.01365 0.0
          0.039 -0.01495 0.0
          0.0377 -0.01495 0.0
          0.0364 -0.01495 0.0
          0.0351 -0.01495 0.0
          0.0338 -0.01495 0.0
          0.0325 -0.01495 0.0
          0.0312 -0.01495 0.0
          0.0299 -0.01495 0.0
          0.0286 -0.01495 0.0
          0.0273 -0.01495 0.0
          0.026 -0.01495 0.0
          0.0247 -0.01495 0.0
          0.0234 -0.01495 0.0
          0.0221 -0.01495 0.0