<?xml version="1.0"?>
<VTKFile type="UnstructuredGrid" version="0.1" byte_order="LittleEndian">
  <UnstructuredGrid>
    <Piece NumberOfPoints="961" NumberOfCells="900">
      <PointData Scalars="Temperature">
        <DataArray type="Float32" Name="Temperature" format="ascii">
          21.0008
          21.0141
          21.0279
          21.0416
          21.0532
          21.0614
          21.0655
          21.0669
          21.0663
          21.0638
          21.0589
          21.0524
          21.0459
          21.0411
          21.0387
          21.0388
          21.0415
          21.0465
          21.0533
          21.0599
          21.0649
          21.0675
          21.0682
          21.0669
          21.0631
          21.0556
          21.045
          21.0328
          21.0211
          21.0104
          21.0006
          21.0137
          21.2271
          21.4561
          21.6862
          21.887
          22.0177
          22.0818
          22.0986
          22.0918
          22.0518
          21.9719
          21.8579
          21.7467
          21.665
          21.6271
          21.6288
          21.6704
          21.7562
          21.8714
          21.9892
          22.0715
          22.1128
          22.1204
          22.1052
          22.0455
          21.9245
          21.741
          21.5359
          21.3399
          21.1685
          21.0101
          21.0254
          21.4234
          21.8565
          22.3746
          22.7968
          23.0697
          23.1323
          23.1485
          23.142
          23.1029
          22.9232
          22.6704
          22.3985
          22.2471
          22.1787
          22.182
          22.2571
          22.4162
          22.6975
          22.958
          23.1426
          23.183
          23.1904
          23.1757
          23.1174
          22.8617
          22.4723
          22.0045
          21.6338
          21.314
          21.0189
          21.0352
          21.5856
          22.1899
          22.9141
          24.218
          24.2181
          24.2182
          24.2182
          24.2182
          24.2182
          24.2181
          23.3062
          22.9506
          22.7521
          22.6652
          22.6697
          22.766
          22.9752
          23.3438
          24.2796
          24.2797
          24.2797
          24.2797
          24.2797
          24.2796
          24.2795
          23.0443
          22.3952
          21.8795
          21.4369
          21.0263
          21.0423
          21.7023
          22.4131
          23.2565
          24.2187
          24.2188
          24.2188
          24.2189
          24.2189
          24.2189
          24.2188
          23.724
          23.3596
          23.1587
          23.0686
          23.0741
          23.1755
          23.3888
          23.7683
          24.2803
          24.2804
          24.2804
          24.2804
          24.2804
          24.2803
          24.2802
          23.4095
          22.6635
          22.0622
          21.5309
          21.0321
          21.0468
          21.7733
          22.5361
          23.3552
          24.2206
          24.2206
          24.2207
          24.2207
          24.2207
          24.2207
          24.2207
          23.8978
          23.6365
          23.4648
          23.3853
          23.3914
          23.4833
          23.6683
          23.9441
          24.2822
          24.2822
          24.2822
          24.2822
          24.2822
          24.2821
          24.2821
          23.5254
          22.8201
          22.1815
          21.5958
          21.0361
          21.0493
          21.8108
          22.5904
          23.3964
          24.2235
          24.2236
          24.2236
          24.2237
          24.2237
          24.2237
          24.2237
          24.0014
          23.8151
          23.6858
          23.6233
          23.6297
          23.7054
          23.8481
          24.0485
          24.2852
          24.2852
          24.2852
          24.2852
          24.2851
          24.2851
          24.2851
          23.579
          22.8981
          22.252
          21.6365
          21.0387
          21.0505
          21.8287
          22.6158
          23.4161
          24.2277
          24.2277
          24.2277
          24.2278
          24.2278
          24.2278
          24.2278
          24.0704
          23.9372
          23.8431
          23.7974
          23.8041
          23.8632
          23.9708
          24.1179
          24.2893
          24.2893
          24.2893
          24.2893
          24.2893
          24.2892
          24.2892
          23.6072
          22.9396
          22.2912
          21.6604
          21.0402
          21.0511
          21.8376
          22.6288
          23.4273
          24.2329
          24.233
          24.233
          24.233
          24.233
          24.2331
          24.2331
          24.1194
          24.0235
          23.9559
          23.9236
          23.9304
          23.9761
          24.0574
          24.1671
          24.2946
          24.2946
          24.2946
          24.2945
          24.2945
          24.2945
          24.2944
          23.624
          22.9629
          22.3133
          21.6741
          21.0411
          21.0514
          21.8426
          22.6366
          23.4353
          24.2393
          24.2394
          24.2394
          24.2394
          24.2395
          24.2395
          24.2395
          24.156
          24.0863
          24.0377
          24.0154
          24.0222
          24.0581
          24.1204
          24.2038
          24.301
          24.301
          24.301
          24.301
          24.3009
          24.3009
          24.3009
          23.6357
          22.9774
          22.3265
          21.6821
          21.0416
          21.0516
          21.846
          22.6425
          23.4424
          24.2469
          24.2469
          24.247
          24.247
          24.247
          24.247
          24.247
          24.1847
          24.1334
          24.0983
          24.0831
          24.09
          24.1187
          24.1675
          24.2325
          24.3085
          24.3085
          24.3085
          24.3085
          24.3085
          24.3084
          24.3084
          23.6452
          22.9875
          22.3352
          21.6873
          21.0419
          21.0518
          21.849
          22.6478
          23.4496
          24.2556
          24.2556
          24.2557
          24.2557
          24.2557
          24.2557
          24.2557
          24.2081
          24.1698
          24.1443
          24.1343
          24.1411
          24.1648
          24.2039
          24.256
          24.3172
          24.3172
          24.3172
          24.3172
          24.3172
          24.3171
          24.3171
          23.654
          22.9957
          22.3417
          21.691
          21.0422
          21.052
          21.8518
          22.6532
          23.4573
          24.2654
          24.2654
          24.2655
          24.2655
          24.2655
          24.2656
          24.2656
          24.2284
          24.1993
          24.1806
          24.1741
          24.181
          24.201
          24.2334
          24.2763
          24.3271
          24.3271
          24.3271
          24.327
          24.327
          24.327
          24.3269
          23.6628
          23.0032
          22.3473
          21.6941
          21.0424
          21.0522
          21.8549
          22.6589
          23.4657
          24.2764
          24.2764
          24.2765
          24.2765
          24.2765
          24.2766
          24.2766
          24.2469
          24.2243
          24.2104
          24.2066
          24.2134
          24.2309
          24.2584
          24.2947
          24.3381
          24.3381
          24.3381
          24.338
          24.338
          24.338
          24.3379
          23.6722
          23.0108
          22.3527
          21.697
          21.0426
          21.0524
          21.8581
          22.6652
          23.4749
          24.2885
          24.2885
          24.2886
          24.2886
          24.2887
          24.2887
          24.2887
          24.2644
          24.2466
          24.2363
          24.2343
          24.2411
          24.2568
          24.2808
          24.3123
          24.3502
          24.3502
          24.3502
          24.3502
          24.3501
          24.3501
          24.35
          23.6823
          23.0188
          22.3583
          21.7
          21.0427
          21.0526
          21.8616
          22.672
          23.4849
          24.3017
          24.3018
          24.3018
          24.3019
          24.302
          24.302
          24.302
          24.2818
          24.2676
          24.2599
          24.2593
          24.2662
          24.2804
          24.3017
          24.3297
          24.3635
          24.3635
          24.3635
          24.3634
          24.3634
          24.3633
          24.3633
          23.6933
          23.0274
          22.3644
          21.7032
          21.0429
          21.0528
          21.8655
          22.6794
          23.4958
          24.3161
          24.3161
          24.3162
          24.3163
          24.3164
          24.3165
          24.3165
          24.2995
          24.2881
          24.2826
          24.2831
          24.29
          24.3031
          24.3223
          24.3474
          24.378
          24.378
          24.3779
          24.3779
          24.3778
          24.3777
          24.3776
          23.7055
          23.0371
          22.3712
          21.7069
          21.0432
          21.0531
          21.8698
          22.6876
          23.5077
          24.3315
          24.3316
          24.3317
          24.3319
          24.332
          24.3321
          24.3321
          24.318
          24.3091
          24.3053
          24.3069
          24.3137
          24.3258
          24.3432
          24.3659
          24.3937
          24.3936
          24.3935
          24.3934
          24.3933
          24.3932
          24.3931
          23.7189
          23.0481
          22.3792
          21.7112
          21.0434
          21.0534
          21.8747
          22.6968
          23.5207
          24.3481
          24.3482
          24.3484
          24.3486
          24.3488
          24.3489
          24.349
          24.3377
          24.3311
          24.3291
          24.3316
          24.3384
          24.3496
          24.3653
          24.3855
          24.4105
          24.4105
          24.4103
          24.4101
          24.4099
          24.4097
          24.4096
          23.7341
          23.0613
          22.3892
          21.7167
          21.0438
          21.0538
          21.8807
          22.7075
          23.5352
          24.3657
          24.3658
          24.3661
          24.3664
          24.3668
          24.367
          24.3671
          24.3588
          24.3549
          24.3548
          24.3583
          24.3651
          24.3753
          24.389
          24.4066
          24.4286
          24.4285
          24.4283
          24.428
          24.4276
          24.4273
          24.4272
          23.7518
          23.0779
          22.4024
          21.7243
          21.0443
          21.0542
          21.8886
          22.7211
          23.5521
          24.3842
          24.3844
          24.3848
          24.3854
          24.386
          24.3864
          24.3866
          24.3819
          24.3811
          24.3833
          24.388
          24.3948
          24.4038
          24.4152
          24.4297
          24.4481
          24.4479
          24.4475
          24.4469
          24.4464
          24.4459
          24.4458
          23.7736
          23.1004
          22.4215
          21.7357
          21.0449
          21.0555
          21.9005
          22.7404
          23.5732
          24.4035
          24.4038
          24.4046
          24.4055
          24.4065
          24.4072
          24.4075
          24.4075
          24.4107
          24.4157
          24.4219
          24.4287
          24.4362
          24.4448
          24.4553
          24.469
          24.4687
          24.468
          24.4671
          24.4661
          24.4654
          24.4651
          23.8024
          23.1338
          22.4517
          21.7539
          21.0466
          21.0547
          21.9224
          22.772
          23.6034
          24.4235
          24.4239
          24.4251
          24.4268
          24.4284
          24.4297
          24.4302
          24.4365
          24.4448
          24.4535
          24.4615
          24.4683
          24.4739
          24.4789
          24.4842
          24.4916
          24.4912
          24.4899
          24.4883
          24.4867
          24.4855
          24.4851
          23.8432
          23.1871
          22.5022
          21.7866
          21.0465
          21.0673
          21.9612
          22.8326
          23.6523
          24.4437
          24.4444
          24.4464
          24.4491
          24.452
          24.4542
          24.455
          24.4698
          24.4851
          24.4985
          24.5088
          24.5156
          24.5189
          24.5191
          24.5175
          24.5164
          24.5156
          24.5135
          24.5106
          24.5079
          24.506
          24.5053
          23.9053
          23.2766
          22.5937
          21.8423
          21.0602
          21.0303
          22.0652
          22.9505
          23.744
          24.4635
          24.4647
          24.4678
          24.4724
          24.4773
          24.4813
          24.4828
          24.5095
          24.5338
          24.553
          24.5662
          24.5729
          24.5733
          24.5677
          24.557
          24.5441
          24.5426
          24.5388
          24.534
          24.5294
          24.5263
          24.5252
          24.0021
          23.4338
          22.7582
          21.9714
          21.0241
          21.2376
          22.2167
          23.2315
          23.9109
          24.4823
          24.484
          24.4888
          24.4962
          24.5049
          24.5122
          24.5153
          24.5586
          24.5945
          24.6201
          24.6362
          24.6429
          24.6404
          24.6282
          24.6059
          24.5763
          24.5734
          24.5664
          24.5578
          24.5505
          24.5457
          24.544
          24.146
          23.6963
          23.1048
          22.1563
          21.2364
          20.4228
          23.044
          23.759
          24.1734
          24.4986
          24.5011
          24.5083
          24.5194
          24.5337
          24.5501
          24.5557
          24.6246
          24.6718
          24.703
          24.7217
          24.7285
          24.7233
          24.7053
          24.6713
          24.6162
          24.6109
          24.5954
          24.5814
          24.5702
          24.5629
          24.5603
          24.3393
          24.0841
          23.7163
          23.0337
          20.4116
          24.4934
          24.4986
          24.5033
          24.5082
          24.5108
          24.5147
          24.525
          24.5405
          24.5615
          24.5885
          24.6323
          24.7188
          24.769
          24.8043
          24.8252
          24.8321
          24.8248
          24.8028
          24.7648
          24.6894
          24.6494
          24.6239
          24.6031
          24.5873
          24.5764
          24.5719
          24.568
          24.562
          24.5564
          24.5515
          24.5462
          24.4953
          24.4991
          24.5036
          24.5088
          24.5152
          24.5242
          24.5377
          24.5573
          24.5843
          24.6215
          24.6721
          24.7271
          24.7772
          24.812
          24.8328
          24.8397
          24.8326
          24.8113
          24.7743
          24.7295
          24.6846
          24.6487
          24.621
          24.6004
          24.586
          24.576
          24.5685
          24.5622
          24.5567
          24.552
          24.5482
          24.4975
          24.5001
          24.5043
          24.5102
          24.5182
          24.5296
          24.5456
          24.5681
          24.5991
          24.6413
          24.6965
          24.7539
          24.8006
          24.8348
          24.8554
          24.8623
          24.8556
          24.8354
          24.8032
          24.7613
          24.712
          24.6662
          24.6329
          24.6088
          24.5915
          24.579
          24.5698
          24.5627
          24.5571
          24.5529
          24.5504
          24.4991
          24.5005
          24.5046
          24.5108
          24.5193
          24.5314
          24.5483
          24.5718
          24.6041
          24.6478
          24.7081
          24.7697
          24.8162
          24.8499
          24.8705
          24.8774
          24.8708
          24.8513
          24.8201
          24.7786
          24.7242
          24.6725
          24.6371
          24.6117
          24.5934
          24.5801
          24.5703
          24.5629
          24.5573
          24.5533
          24.552
        </DataArray>
      </PointData>
      <CellData>
      </CellData>
      <Points>
        <DataArray type="Float32" NumberOfComponents="3" format="ascii">
          0.039 0.00195 0.0
          0.0377 0.00195 0.0
          0.0364 0.00195 0.0
          0.0351 0.00195 0.0
          0.0338 0.00195 0.0
          0.0325 0.00195 0.0
          0.0312 0.00195 0.0
          0.0299 0.00195 0.0
          0.0286 0.00195 0.0
          0.0273 0.00195 0.0
          0.026 0.00195 0.0
          0.0247 0.00195 0.0
          0.0234 0.00195 0.0
          0.0221 0.00195 0.0
          0.0208 0.00195 0.0
          0.0195 0.00195 0.0
          0.0182 0.00195 0.0
          0.0169 0.00195 0.0
          0.0156 0.00195 0.0
          0.0143 0.00195 0.0
          0.013 0.00195 0.0
          0.0117 0.00195 0.0
          0.0104 0.00195 0.0
          0.0091 0.00195 0.0
          0.0078 0.00195 0.0
          0.0065 0.00195 0.0
          0.0052 0.00195 0.0
          0.0039 0.00195 0.0
          0.0026 0.00195 0.0
          0.0013 0.00195 0.0
          0 0.00195 0.0
          0.039 0.00065 0.0
          0.0377 0.00065 0.0
          0.0364 0.00065 0.0
          0.0351 0.00065 0.0
          0.0338 0.00065 0.0
          0.0325 0.00065 0.0
          0.0312 0.00065 0.0
          0.0299 0.00065 0.0
          0.0286 0.00065 0.0
          0.0273 0.00065 0.0
          0.026 0.00065 0.0
          0.0247 0.00065 0.0
          0.0234 0.00065 0.0
          0.0221 0.00065 0.0
          0.0208 0.00065 0.0
          0.0195 0.00065 0.0
          0.0182 0.00065 0.0
          0.0169 0.00065 0.0
          0.0156 0.00065 0.0
          0.0143 0.00065 0.0
          0.013 0.00065 0.0
          0.0117 0.00065 0.0
          0.0104 0.00065 0.0
          0.0091 0.00065 0.0
          0.0078 0.00065 0.0
          0.0065 0.00065 0.0
          0.0052 0.00065 0.0
          0.0039 0.00065 0.0
          0.0026 0.00065 0.0
          0.0013 0.00065 0.0
          0 0.00065 0.0
          0.039 -0.00065 0.0
          0.0377 -0.00065 0.0
          0.0364 -0.00065 0.0
          0.0351 -0.00065 0.0
          0.0338 -0.00065 0.0
          0.0325 -0.00065 0.0
          0.0312 -0.00065 0.0
          0.0299 -0.00065 0.0
          0.0286 -0.00065 0.0
          0.0273 -0.00065 0.0
          0.026 -0.00065 0.0
          0.0247 -0.00065 0.0
          0.0234 -0.00065 0.0
          0.0221 -0.00065 0.0
          0.0208 -0.00065 0.0
          0.0195 -0.00065 0.0
          0.0182 -0.00065 0.0
          0.0169 -0.00065 0.0
          0.0156 -0.00065 0.0
          0.0143 -0.00065 0.0
          0.013 -0.00065 0.0
          0.0117 -0.00065 0.0
          0.0104 -0.00065 0.0
          0.0091 -0.00065 0.0
          0.0078 -0.00065 0.0
          0.0065 -0.00065 0.0
          0.0052 -0.00065 0.0
          0.0039 -0.00065 0.0
          0.0026 -0.00065 0.0
          0.0013 -0.00065 0.0
          0 -0.00065 0.0
          0.039 -0.00195 0.0
          0.0377 -0.00195 0.0
          0.0364 -0.00195 0.0
          0.0351 -0.00195 0.0
          0.0338 -0.00195 0.0
          0.0325 -0.00195 0.0
          0.0312 -0.00195 0.0
          0.0299 -0.00195 0.0
          0.0286 -0.00195 0.0
          0.0273 -0.00195 0.0
          0.026 -0.00195 0.0
          0.0247 -0.00195 0.0
          0.0234 -0.00195 0.0
          0.0221 -0.00195 0.0
          0.0208 -0.00195 0.0
          0.0195 -0.00195 0.0
          0.0182 -0.00195 0.0
          0.0169 -0.00195 0.0
          0.0156 -0.00195 0.0
          0.0143 -0.00195 0.0
          0.013 -0.00195 0.0
          0.0117 -0.00195 0.0
          0.0104 -0.00195 0.0
          0.0091 -0.00195 0.0
          0.0078 -0.00195 0.0
          0.0065 -0.00195 0.0
          0.0052 -0.00195 0.0
          0.0039 -0.00195 0.0
          0.0026 -0.00195 0.0
          0.0013 -0.00195 0.0
          0 -0.00195 0.0
          0.039 -0.00325 0.0
          0.0377 -0.00325 0.0
          0.0364 -0.00325 0.0
          0.0351 -0.00325 0.0
          0.0338 -0.00325 0.0
          0.0325 -0.00325 0.0
          0.0312 -0.00325 0.0
          0.0299 -0.00325 0.0
          0.0286 -0.00325 0.0
          0.0273 -0.00325 0.0
          0.026 -0.00325 0.0
          0.0247 -0.00325 0.0
          0.0234 -0.00325 0.0
          0.0221 -0.00325 0.0
          0.0208 -0.00325 0.0
          0.0195 -0.00325 0.0
          0.0182 -0.00325 0.0
          0.0169 -0.00325 0.0
          0.0156 -0.00325 0.0
          0.0143 -0.00325 0.0
          0.013 -0.00325 0.0
          0.0117 -0.00325 0.0
          0.0104 -0.00325 0.0
          0.0091 -0.00325 0.0
          0.0078 -0.00325 0.0
          0.0065 -0.00325 0.0
          0.0052 -0.00325 0.0
          0.0039 -0.00325 0.0
          0.0026 -0.00325 0.0
          0.0013 -0.00325 0.0
          0 -0.00325 0.0
          0.039 -0.00455 0.0
          0.0377 -0.00455 0.0
          0.0364 -0.00455 0.0
          0.0351 -0.00455 0.0
          0.0338 -0.00455 0.0
          0.0325 -0.00455 0.0
          0.0312 -0.00455 0.0
          0.0299 -0.00455 0.0
          0.0286 -0.00455 0.0
          0.0273 -0.00455 0.0
          0.026 -0.00455 0.0
          0.0247 -0.00455 0.0
          0.0234 -0.00455 0.0
          0.0221 -0.00455 0.0
          0.0208 -0.00455 0.0
          0.0195 -0.00455 0.0
          0.0182 -0.00455 0.0
          0.0169 -0.00455 0.0
          0.0156 -0.00455 0.0
          0.0143 -0.00455 0.0
          0.013 -0.00455 0.0
          0.0117 -0.00455 0.0
          0.0104 -0.00455 0.0
          0.0091 -0.00455 0.0
          0.0078 -0.00455 0.0
          0.0065 -0.00455 0.0
          0.0052 -0.00455 0.0
          0.0039 -0.00455 0.0
          0.0026 -0.00455 0.0
          0.0013 -0.00455 0.0
          0 -0.00455 0.0
          0.039 -0.00585 0.0
          0.0377 -0.00585 0.0
          0.0364 -0.00585 0.0
          0.0351 -0.00585 0.0
          0.0338 -0.00585 0.0
          0.0325 -0.00585 0.0
          0.0312 -0.00585 0.0
          0.0299 -0.00585 0.0
          0.0286 -0.00585 0.0
          0.0273 -0.00585 0.0
          0.026 -0.00585 0.0
          0.0247 -0.00585 0.0
          0.0234 -0.00585 0.0
          0.0221 -0.00585 0.0
          0.0208 -0.00585 0.0
          0.0195 -0.00585 0.0
          0.0182 -0.00585 0.0
          0.0169 -0.00585 0.0
          0.0156 -0.00585 0.0
          0.0143 -0.00585 0.0
          0.013 -0.00585 0.0
          0.0117 -0.00585 0.0
          0.0104 -0.00585 0.0
          0.0091 -0.00585 0.0
          0.0078 -0.00585 0.0
          0.0065 -0.00585 0.0
          0.0052 -0.00585 0.0
          0.0039 -0.00585 0.0
          0.0026 -0.00585 0.0
          0.0013 -0.00585 0.0
          0 -0.00585 0.0
          0.039 -0.00715 0.0
          0.0377 -0.00715 0.0
          0.0364 -0.00715 0.0
          0.0351 -0.00715 0.0
          0.0338 -0.00715 0.0
          0.0325 -0.00715 0.0
          0.0312 -0.00715 0.0
          0.0299 -0.00715 0.0
          0.0286 -0.00715 0.0
          0.0273 -0.00715 0.0
          0.026 -0.00715 0.0
          0.0247 -0.00715 0.0
          0.0234 -0.00715 0.0
          0.0221 -0.00715 0.0
          0.0208 -0.00715 0.0
          0.0195 -0.00715 0.0
          0.0182 -0.00715 0.0
          0.0169 -0.00715 0.0
          0.0156 -0.00715 0.0
          0.0143 -0.00715 0.0
          0.013 -0.00715 0.0
          0.0117 -0.00715 0.0
          0.0104 -0.00715 0.0
          0.0091 -0.00715 0.0
          0.0078 -0.00715 0.0
          0.0065 -0.00715 0.0
          0.0052 -0.00715 0.0
          0.0039 -0.00715 0.0
          0.0026 -0.00715 0.0
          0.0013 -0.00715 0.0
          0 -0.00715 0.0
          0.039 -0.00845 0.0
          0.0377 -0.00845 0.0
          0.0364 -0.00845 0.0
          0.0351 -0.00845 0.0
          0.0338 -0.00845 0.0
          0.0325 -0.00845 0.0
          0.0312 -0.00845 0.0
          0.0299 -0.00845 0.0
          0.0286 -0.00845 0.0
          0.0273 -0.00845 0.0
          0.026 -0.00845 0.0
          0.0247 -0.00845 0.0
          0.0234 -0.00845 0.0
          0.0221 -0.00845 0.0
          0.0208 -0.00845 0.0
          0.0195 -0.00845 0.0
          0.0182 -0.00845 0.0
          0.0169 -0.00845 0.0
          0.0156 -0.00845 0.0
          0.0143 -0.00845 0.0
          0.013 -0.00845 0.0
          0.0117 -0.00845 0.0
          0.0104 -0.00845 0.0
          0.0091 -0.00845 0.0
          0.0078 -0.00845 0.0
          0.0065 -0.00845 0.0
          0.0052 -0.00845 0.0
          0.0039 -0.00845 0.0
          0.0026 -0.00845 0.0
          0.0013 -0.00845 0.0
          0 -0.00845 0.0
          0.039 -0.00975 0.0
          0.0377 -0.00975 0.0
          0.0364 -0.00975 0.0
          0.0351 -0.00975 0.0
          0.0338 -0.00975 0.0
          0.0325 -0.00975 0.0
          0.0312 -0.00975 0.0
          0.0299 -0.00975 0.0
          0.0286 -0.00975 0.0
          0.0273 -0.00975 0.0
          0.026 -0.00975 0.0
          0.0247 -0.00975 0.0
          0.0234 -0.00975 0.0
          0.0221 -0.00975 0.0
          0.0208 -0.00975 0.0
          0.0195 -0.00975 0.0
          0.0182 -0.00975 0.0
          0.0169 -0.00975 0.0
          0.0156 -0.00975 0.0
          0.0143 -0.00975 0.0
          0.013 -0.00975 0.0
          0.0117 -0.00975 0.0
          0.0104 -0.00975 0.0
          0.0091 -0.00975 0.0
          0.0078 -0.00975 0.0
          0.0065 -0.00975 0.0
          0.0052 -0.00975 0.0
          0.0039 -0.00975 0.0
          0.0026 -0.00975 0.0
          0.0013 -0.00975 0.0
          0 -0.00975 0.0
          0.039 -0.01105 0.0
          0.0377 -0.01105 0.0
          0.0364 -0.01105 0.0
          0.0351 -0.01105 0.0
          0.0338 -0.01105 0.0
          0.0325 -0.01105 0.0
          0.0312 -0.01105 0.0
          0.0299 -0.01105 0.0
          0.0286 -0.01105 0.0
          0.0273 -0.01105 0.0
          0.026 -0.01105 0.0
          0.0247 -0.01105 0.0
          0.0234 -0.01105 0.0
          0.0221 -0.01105 0.0
          0.0208 -0.01105 0.0
          0.0195 -0.01105 0.0
          0.0182 -0.01105 0.0
          0.0169 -0.01105 0.0
          0.0156 -0.01105 0.0
          0.0143 -0.01105 0.0
          0.013 -0.01105 0.0
          0.0117 -0.01105 0.0
          0.0104 -0.01105 0.0
          0.0091 -0.01105 0.0
          0.0078 -0.01105 0.0
          0.0065 -0.01105 0.0
          0.0052 -0.01105 0.0
          0.0039 -0.01105 0.0
          0.0026 -0.01105 0.0
          0.0013 -0.01105 0.0
          0 -0.01105 0.0
          0.039 -0.01235 0.0
          0.0377 -0.01235 0.0
          0.0364 -0.01235 0.0
          0.0351 -0.01235 0.0
          0.0338 -0.01235 0.0
          0.0325 -0.01235 0.0
          0.0312 -0.01235 0.0
          0.0299 -0.01235 0.0
          0.0286 -0.01235 0.0
          0.0273 -0.01235 0.0
          0.026 -0.01235 0.0
          0.0247 -0.01235 0.0
          0.0234 -0.01235 0.0
          0.0221 -0.01235 0.0
          0.0208 -0.01235 0.0
          0.0195 -0.01235 0.0
          0.0182 -0.01235 0.0
          0.0169 -0.01235 0.0
          0.0156 -0.01235 0.0
          0.0143 -0.01235 0.0
          0.013 -0.01235 0.0
          0.0117 -0.01235 0.0
          0.0104 -0.01235 0.0
          0.0091 -0.01235 0.0
          0.0078 -0.01235 0.0
          0.0065 -0.01235 0.0
          0.0052 -0.01235 0.0
          0.0039 -0.01235 0.0
          0.0026 -0.01235 0.0
          0.0013 -0.01235 0.0
          0 -0.01235 0.0
          0.039 -0.01365 0.0
          0.0377 -0.01365 0.0
          0.0364 -0.01365 0.0
          0.0351 -0.01365 0.0
          0.0338 -0.01365 0.0
          0.0325 -0.01365 0.0
          0.0312 -0.01365 0.0
          0.0299 -0.01365 0.0
          0.0286 -0.01365 0.0
          0.0273 -0.01365 0.0
          0.026 -0.01365 0.0
          0.0247 -0.01365 0.0
          0.0234 -0.01365 0.0
          0.0221 -0.01365 0.0
          0.0208 -0.01365 0.0
          0.0195 -0.01365 0.0
          0.0182 -0.01365 0.0
          0.0169 -0.01365 0.0
          0.0156 -0.01365 0.0
          0.0143 -0.01365 0.0
          0.013 -0.01365 0.0
          0.0117 -0.01365 0.0
          0.0104 -0.01365 0.0
          0.0091 -0.01365 0.0
          0.0078 -0.01365 0.0
          0.0065 -0.01365 0.0
          0.0052 -0.01365 0.0
          0.0039 -0.01365 0.0
          0.0026 -0.01365 0.0
          0.0013 -0.01365 0.0
          0 -0.01365 0.0
          0.039 -0.01495 0.0
          0.0377 -0.01495 0.0
          0.0364 -0.01495 0.0
          0.0351 -0.01495 0.0
          0.0338 -0.01495 0.0
          0.0325 -0.01495 0.0
          0.0312 -0.01495 0.0
          0.0299 -0.01495 0.0
          0.0286 -0.01495 0.0
          0.0273 -0.01495 0.0
          0.026 -0.01495 0.0
          0.0247 -0.01495 0.0
          0.0234 -0.01495 0.0
          0.0221 -0.01495 0.0