<?xml version="1.0"?>
<VTKFile type="UnstructuredGrid" version="0.1" byte_order="LittleEndian">
  <UnstructuredGrid>
    <Piece NumberOfPoints="961" NumberOfCells="900">
      <PointData Scalars="Temperature">
        <DataArray type="Float32" Name="Temperature" format="ascii">
          21.0032
          21.0544
          21.1075
          21.1604
          21.2052
          21.2364
          21.2522
          21.2577
          21.2552
          21.2457
          21.227
          21.2024
          21.1774
          21.159
          21.1495
          21.1497
          21.1594
          21.1781
          21.2033
          21.2281
          21.247
          21.2567
          21.2593
          21.2544
          21.2399
          21.2115
          21.1713
          21.125
          21.0804
          21.0397
          21.0024
          21.0528
          21.8761
          22.7588
          23.6448
          24.4172
          24.9198
          25.1661
          25.2308
          25.205
          25.0521
          24.7466
          24.3101
          23.8842
          23.5698
          23.4216
          23.4235
          23.5755
          23.8943
          24.3246
          24.7651
          25.0733
          25.2281
          25.2565
          25.1985
          24.9724
          24.5139
          23.8181
          23.0398
          22.2948
          21.6423
          21.0387
          21.0982
          22.6331
          24.3019
          26.2942
          27.9168
          28.9646
          29.2052
          29.2678
          29.2427
          29.0933
          28.407
          27.4406
          26.4001
          25.8183
          25.5514
          25.5549
          25.8291
          26.419
          27.4694
          28.444
          29.1358
          29.2872
          29.3148
          29.2586
          29.0377
          28.0699
          26.5952
          24.8223
          23.4141
          22.1968
          21.0721
          21.1358
          23.2582
          25.5855
          28.3688
          33.367
          33.3676
          33.3679
          33.368
          33.3681
          33.368
          33.3675
          29.8875
          28.5299
          27.768
          27.4282
          27.433
          27.7828
          28.556
          29.9275
          33.433
          33.4334
          33.4335
          33.4335
          33.4334
          33.4331
          33.4326
          28.7655
          26.3069
          24.3488
          22.6646
          21.1004
          21.1632
          23.7071
          26.4436
          29.6832
          33.3682
          33.3685
          33.3687
          33.3689
          33.3689
          33.3688
          33.3687
          31.493
          30.1055
          29.3361
          28.9834
          28.9892
          29.3539
          30.1366
          31.5401
          33.4341
          33.4342
          33.4343
          33.4343
          33.4342
          33.434
          33.4338
          30.1487
          27.3252
          25.0428
          23.0221
          21.1222
          21.1805
          23.9795
          26.9146
          30.059
          33.3703
          33.3705
          33.3706
          33.3708
          33.3708
          33.3708
          33.3707
          32.1586
          31.1696
          30.5137
          30.2016
          30.208
          30.5334
          31.2035
          32.2078
          33.4361
          33.4362
          33.4362
          33.4362
          33.4361
          33.436
          33.4358
          30.5848
          27.9173
          25.4951
          23.2682
          21.1374
          21.1898
          24.1216
          27.1194
          30.2114
          33.3733
          33.3735
          33.3736
          33.3737
          33.3738
          33.3738
          33.3738
          32.5508
          31.8521
          31.3605
          31.1135
          31.1204
          31.3813
          31.8872
          32.6009
          33.4392
          33.4392
          33.4392
          33.4392
          33.4391
          33.439
          33.4388
          30.782
          28.2093
          25.76
          23.4215
          21.1471
          21.1943
          24.1876
          27.2115
          30.2784
          33.3773
          33.3775
          33.3777
          33.3778
          33.3778
          33.3778
          33.3778
          32.8062
          32.3134
          31.9582
          31.7762
          31.7833
          31.9794
          32.3492
          32.8567
          33.4432
          33.4432
          33.4432
          33.4432
          33.4431
          33.443
          33.4428
          30.8801
          28.3603
          25.9047
          23.5101
          21.1529
          21.1964
          24.218
          27.2539
          30.3102
          33.3824
          33.3826
          33.3827
          33.3828
          33.3829
          33.3829
          33.3829
          32.9812
          32.6333
          32.3803
          32.2505
          32.2576
          32.4019
          32.6694
          33.0319
          33.4483
          33.4483
          33.4483
          33.4482
          33.4482
          33.448
          33.4479
          30.9323
          28.4404
          25.983
          23.5591
          21.156
          21.1973
          24.2325
          27.2747
          30.3271
          33.3885
          33.3887
          33.3888
          33.3889
          33.389
          33.389
          33.389
          33.1047
          32.8586
          32.6795
          32.5883
          32.5955
          32.7012
          32.8948
          33.1555
          33.4544
          33.4544
          33.4544
          33.4543
          33.4542
          33.4541
          33.454
          30.9622
          28.4844
          26.026
          23.5861
          21.1578
          21.1978
          24.2401
          27.2861
          30.338
          33.3957
          33.3958
          33.396
          33.3961
          33.3962
          33.3962
          33.3962
          33.1938
          33.0191
          32.8927
          32.8291
          32.8364
          32.9144
          33.0554
          33.2445
          33.4615
          33.4615
          33.4615
          33.4614
          33.4614
          33.4612
          33.4611
          30.981
          28.5099
          26.0503
          23.6013
          21.1588
          21.1981
          24.2448
          27.2937
          30.3465
          33.4038
          33.404
          33.4041
          33.4043
          33.4043
          33.4044
          33.4044
          33.2593
          33.135
          33.0457
          33.0019
          33.0091
          33.0674
          33.1712
          33.3101
          33.4697
          33.4697
          33.4696
          33.4696
          33.4695
          33.4694
          33.4692
          30.9945
          28.5261
          26.065
          23.6102
          21.1594
          21.1984
          24.2483
          27.3
          30.3546
          33.413
          33.4132
          33.4134
          33.4135
          33.4136
          33.4136
          33.4136
          33.3089
          33.22
          33.1569
          33.127
          33.1343
          33.1786
          33.2562
          33.3596
          33.4789
          33.4789
          33.4788
          33.4787
          33.4787
          33.4785
          33.4784
          31.0056
          28.5377
          26.0749
          23.6161
          21.1597
          21.1986
          24.2515
          27.3059
          30.3628
          33.4232
          33.4234
          33.4236
          33.4237
          33.4238
          33.4239
          33.4239
          33.3476
          33.2837
          33.2391
          33.2191
          33.2263
          33.2608
          33.3199
          33.3983
          33.4891
          33.4891
          33.489
          33.4889
          33.4888
          33.4887
          33.4886
          31.0159
          28.5474
          26.0826
          23.6205
          21.16
          21.1988
          24.2548
          27.312
          30.3715
          33.4345
          33.4347
          33.4348
          33.435
          33.4351
          33.4351
          33.4352
          33.379
          33.3328
          33.3015
          33.2884
          33.2957
          33.3232
          33.369
          33.4297
          33.5003
          33.5003
          33.5002
          33.5002
          33.5
          33.4999
          33.4998
          31.0264
          28.5567
          26.0897
          23.6245
          21.1603
          21.199
          24.2583
          27.3186
          30.381
          33.4468
          33.4469
          33.4471
          33.4473
          33.4474
          33.4475
          33.4475
          33.4058
          33.3723
          33.3503
          33.3423
          33.3495
          33.372
          33.4085
          33.4564
          33.5126
          33.5126
          33.5125
          33.5124
          33.5123
          33.5121
          33.512
          31.0377
          28.5666
          26.0972
          23.6287
          21.1605
          21.1992
          24.2622
          27.326
          30.3915
          33.46
          33.4602
          33.4604
          33.4606
          33.4608
          33.4609
          33.4609
          33.4297
          33.4055
          33.3904
          33.386
          33.3932
          33.412
          33.4416
          33.4803
          33.5259
          33.5259
          33.5258
          33.5257
          33.5255
          33.5253
          33.5252
          31.0505
          28.5782
          26.1062
          23.6338
          21.1609
          21.1995
          24.2669
          27.3346
          30.4032
          33.4743
          33.4745
          33.4747
          33.475
          33.4752
          33.4753
          33.4754
          33.4521
          33.4349
          33.4249
          33.4233
          33.4305
          33.4466
          33.4709
          33.5026
          33.5403
          33.5403
          33.5401
          33.5399
          33.5397
          33.5395
          33.5394
          31.0657
          28.593
          26.1183
          23.6408
          21.1613
          21.1999
          24.2731
          27.3453
          30.4167
          33.4895
          33.4897
          33.49
          33.4904
          33.4906
          33.4908
          33.4909
          33.4741
          33.4624
          33.4565
          33.4571
          33.4643
          33.4781
          33.4984
          33.5245
          33.5558
          33.5557
          33.5555
          33.5553
          33.555
          33.5547
          33.5545
          31.085
          28.6137
          26.1362
          23.6515
          21.162
          21.2006
          24.2823
          27.3603
          30.4336
          33.5056
          33.5059
          33.5063
          33.5068
          33.5072
          33.5075
          33.5076
          33.4963
          33.4895
          33.4872
          33.4896
          33.4968
          33.5088
          33.5254
          33.5467
          33.5724
          33.5723
          33.572
          33.5716
          33.5712
          33.5708
          33.5705
          31.1112
          28.6451
          26.1648
          23.6691
          21.1632
          21.2012
          24.2982
          27.3842
          30.4571
          33.5226
          33.5229
          33.5235
          33.5242
          33.5249
          33.5254
          33.5256
          33.5197
          33.5175
          33.5187
          33.5229
          33.53
          33.5402
          33.5534
          33.57
          33.5903
          33.5901
          33.5896
          33.5889
          33.5883
          33.5877
          33.5874
          31.15
          28.6966
          26.2137
          23.6997
          21.1648
          21.205
          24.3279
          27.4282
          30.4946
          33.5402
          33.5406
          33.5415
          33.5427
          33.5438
          33.5446
          33.5449
          33.545
          33.5479
          33.5526
          33.5587
          33.5659
          33.5741
          33.5837
          33.5952
          33.6095
          33.6092
          33.6084
          33.6073
          33.6062
          33.6054
          33.605
          31.2118
          28.7855
          26.3011
          23.7545
          21.1702
          21.2014
          24.3933
          27.5157
          30.5635
          33.5582
          33.5589
          33.5603
          33.5622
          33.564
          33.5654
          33.5659
          33.5731
          33.5819
          33.5909
          33.5991
          33.6062
          33.6123
          33.6176
          33.6232
          33.6304
          33.6299
          33.6285
          33.6267
          33.6249
          33.6235
          33.6229
          31.3156
          28.9446
          26.4607
          23.8604
          21.1691
          21.2458
          24.5196
          27.7074
          30.6997
          33.5763
          33.5773
          33.5795
          33.5826
          33.5858
          33.5882
          33.5891
          33.6054
          33.6215
          33.6355
          33.6463
          33.6534
          33.6568
          33.6571
          33.6553
          33.6533
          33.6525
          33.6501
          33.6471
          33.644
          33.6419
          33.641
          31.4949
          29.2324
          26.7658
          24.0482
          21.2174
          21.1118
          24.8806
          28.1053
          30.9902
          33.5938
          33.5952
          33.5988
          33.6039
          33.6094
          33.6136
          33.6152
          33.6437
          33.6692
          33.6892
          33.7028
          33.7098
          33.7103
          33.7045
          33.6933
          33.6792
          33.6777
          33.6736
          33.6683
          33.6633
          33.6597
          33.6584
          31.7973
          29.7605
          27.3306
          24.4969
          21.0882
          21.8571
          25.4122
          29.0903
          31.552
          33.6097
          33.6118
          33.6174
          33.6257
          33.6352
          33.643
          33.6462
          33.6914
          33.7284
          33.7548
          33.7713
          33.7784
          33.7759
          33.7634
          33.7406
          33.7098
          33.7067
          33.6992
          33.69
          33.6819
          33.6763
          33.6742
          32.2685
          30.663
          28.5426
          25.1439
          21.8433
          18.9239
          28.3748
          30.9601
          32.458
          33.6224
          33.6255
          33.6343
          33.6469
          33.6624
          33.6795
          33.6853
          33.7558
          33.8039
          33.8357
          33.8548
          33.8618
          33.8567
          33.8386
          33.8041
          33.7481
          33.7426
          33.7264
          33.7115
          33.6989
          33.69
          33.6868
          32.9148
          32.0078
          30.6942
          28.2541
          18.9068
          33.5719
          33.5893
          33.6024
          33.6149
          33.6272
          33.6356
          33.6486
          33.6662
          33.6887
          33.7168
          33.7611
          33.848
          33.8988
          33.9346
          33.9558
          33.9628
          33.9556
          33.9335
          33.8954
          33.8201
          33.7798
          33.7534
          33.7313
          33.7135
          33.7001
          33.6911
          33.6777
          33.6645
          33.6516
          33.6384
          33.621
          33.5788
          33.5909
          33.6031
          33.6154
          33.6282
          33.6423
          33.6594
          33.6816
          33.7105
          33.749
          33.8005
          33.8563
          33.9069
          33.9422
          33.9633
          33.9704
          33.9633
          33.9419
          33.9048
          33.8596
          33.8141
          33.7771
          33.7477
          33.7247
          33.7068
          33.6917
          33.6781
          33.6648
          33.6523
          33.6401
          33.6279
          33.5866
          33.5942
          33.6043
          33.6163
          33.6301
          33.6463
          33.6661
          33.6915
          33.7247
          33.7684
          33.8247
          33.883
          33.9303
          33.965
          33.9859
          33.993
          33.9863
          33.966
          33.9336
          33.8912
          33.841
          33.7939
          33.7586
          33.7318
          33.7108
          33.6936
          33.6787
          33.6654
          33.6534
          33.6433
          33.6357
          33.5922
          33.5955
          33.6048
          33.6168
          33.6308
          33.6477
          33.6684
          33.6949
          33.7295
          33.7748
          33.8362
          33.8987
          33.9459
          33.9801
          34.001
          34.0081
          34.0016
          33.9819
          33.9504
          33.9083
          33.8531
          33.7999
          33.7625
          33.7343
          33.7123
          33.6943
          33.679
          33.6656
          33.6539
          33.6446
          33.6413
        </DataArray>
      </PointData>
      <CellData>
      </CellData>
      <Points>
        <DataArray type="Float32" NumberOfComponents="3" format="ascii">
          0.039 0.00195 0.0
          0.0377 0.00195 0.0
          0.0364 0.00195 0.0
          0.0351 0.00195 0.0
          0.0338 0.00195 0.0
          0.0325 0.00195 0.0
          0.0312 0.00195 0.0
          0.0299 0.00195 0.0
          0.0286 0.00195 0.0
          0.0273 0.00195 0.0
          0.026 0.00195 0.0
          0.0247 0.00195 0.0
          0.0234 0.00195 0.0
          0.0221 0.00195 0.0
          0.0208 0.00195 0.0
          0.0195 0.00195 0.0
          0.0182 0.00195 0.0
          0.0169 0.00195 0.0
          0.0156 0.00195 0.0
          0.0143 0.00195 0.0
          0.013 0.00195 0.0
          0.0117 0.00195 0.0
          0.0104 0.00195 0.0
          0.0091 0.00195 0.0
          0.0078 0.00195 0.0
          0.0065 0.00195 0.0
          0.0052 0.00195 0.0
          0.0039 0.00195 0.0
          0.0026 0.00195 0.0
          0.0013 0.00195 0.0
          0 0.00195 0.0
          0.039 0.00065 0.0
          0.0377 0.00065 0.0
          0.0364 0.00065 0.0
          0.0351 0.00065 0.0
          0.0338 0.00065 0.0
          0.0325 0.00065 0.0
          0.0312 0.00065 0.0
          0.0299 0.00065 0.0
          0.0286 0.00065 0.0
          0.0273 0.00065 0.0
          0.026 0.00065 0.0
          0.0247 0.00065 0.0
          0.0234 0.00065 0.0
          0.0221 0.00065 0.0
          0.0208 0.00065 0.0
          0.0195 0.00065 0.0
          0.0182 0.00065 0.0
          0.0169 0.00065 0.0
          0.0156 0.00065 0.0
          0.0143 0.00065 0.0
          0.013 0.00065 0.0
          0.0117 0.00065 0.0
          0.0104 0.00065 0.0
          0.0091 0.00065 0.0
          0.0078 0.00065 0.0
          0.0065 0.00065 0.0
          0.0052 0.00065 0.0
          0.0039 0.00065 0.0
          0.0026 0.00065 0.0
          0.0013 0.00065 0.0
          0 0.00065 0.0
          0.039 -0.00065 0.0
          0.0377 -0.00065 0.0
          0.0364 -0.00065 0.0
          0.0351 -0.00065 0.0
          0.0338 -0.00065 0.0
          0.0325 -0.00065 0.0
          0.0312 -0.00065 0.0
          0.0299 -0.00065 0.0
          0.0286 -0.00065 0.0
          0.0273 -0.00065 0.0
          0.026 -0.00065 0.0
          0.0247 -0.00065 0.0
          0.0234 -0.00065 0.0
          0.0221 -0.00065 0.0
          0.0208 -0.00065 0.0
          0.0195 -0.00065 0.0
          0.0182 -0.00065 0.0
          0.0169 -0.00065 0.0
          0.0156 -0.00065 0.0
          0.0143 -0.00065 0.0
          0.013 -0.00065 0.0
          0.0117 -0.00065 0.0
          0.0104 -0.00065 0.0
          0.0091 -0.00065 0.0
          0.0078 -0.00065 0.0
          0.0065 -0.00065 0.0
          0.0052 -0.00065 0.0
          0.0039 -0.00065 0.0
          0.0026 -0.00065 0.0
          0.0013 -0.00065 0.0
          0 -0.00065 0.0
          0.039 -0.00195 0.0
          0.0377 -0.00195 0.0
          0.0364 -0.00195 0.0
          0.0351 -0.00195 0.0
          0.0338 -0.00195 0.0
          0.0325 -0.00195 0.0
          0.0312 -0.00195 0.0
          0.0299 -0.00195 0.0
          0.0286 -0.00195 0.0
          0.0273 -0.00195 0.0
          0.026 -0.00195 0.0
          0.0247 -0.00195 0.0
          0.0234 -0.00195 0.0
          0.0221 -0.00195 0.0
          0.0208 -0.00195 0.0
          0.0195 -0.00195 0.0
          0.0182 -0.00195 0.0
          0.0169 -0.00195 0.0
          0.0156 -0.00195 0.0
          0.0143 -0.00195 0.0
          0.013 -0.00195 0.0
          0.0117 -0.00195 0.0
          0.0104 -0.00195 0.0
          0.0091 -0.00195 0.0
          0.0078 -0.00195 0.0
          0.0065 -0.00195 0.0
          0.0052 -0.00195 0.0
          0.0039 -0.00195 0.0
          0.0026 -0.00195 0.0
          0.0013 -0.00195 0.0
          0 -0.00195 0.0
          0.039 -0.00325 0.0
          0.0377 -0.00325 0.0
          0.0364 -0.00325 0.0
          0.0351 -0.00325 0.0
          0.0338 -0.00325 0.0
          0.0325 -0.00325 0.0
          0.0312 -0.00325 0.0
          0.0299 -0.00325 0.0
          0.0286 -0.00325 0.0
          0.0273 -0.00325 0.0
          0.026 -0.00325 0.0
          0.0247 -0.00325 0.0
          0.0234 -0.00325 0.0
          0.0221 -0.00325 0.0
          0.0208 -0.00325 0.0
          0.0195 -0.00325 0.0
          0.0182 -0.00325 0.0
          0.0169 -0.00325 0.0
          0.0156 -0.00325 0.0
          0.0143 -0.00325 0.0
          0.013 -0.00325 0.0
          0.0117 -0.00325 0.0
          0.0104 -0.00325 0.0
          0.0091 -0.00325 0.0
          0.0078 -0.00325 0.0
          0.0065 -0.00325 0.0
          0.0052 -0.00325 0.0
          0.0039 -0.00325 0.0
          0.0026 -0.00325 0.0
          0.0013 -0.00325 0.0
          0 -0.00325 0.0
          0.039 -0.00455 0.0
          0.0377 -0.00455 0.0
          0.0364 -0.00455 0.0
          0.0351 -0.00455 0.0
          0.0338 -0.00455 0.0
          0.0325 -0.00455 0.0
          0.0312 -0.00455 0.0
          0.0299 -0.00455 0.0
          0.0286 -0.00455 0.0
          0.0273 -0.00455 0.0
          0.026 -0.00455 0.0
          0.0247 -0.00455 0.0
          0.0234 -0.00455 0.0
          0.0221 -0.00455 0.0
          0.0208 -0.00455 0.0
          0.0195 -0.00455 0.0
          0.0182 -0.00455 0.0
          0.0169 -0.00455 0.0
          0.0156 -0.00455 0.0
          0.0143 -0.00455 0.0
          0.013 -0.00455 0.0
          0.0117 -0.00455 0.0
          0.0104 -0.00455 0.0
          0.0091 -0.00455 0.0
          0.0078 -0.00455 0.0
          0.0065 -0.00455 0.0
          0.0052 -0.00455 0.0
          0.0039 -0.00455 0.0
          0.0026 -0.00455 0.0
          0.0013 -0.00455 0.0
          0 -0.00455 0.0
          0.039 -0.00585 0.0
          0.0377 -0.00585 0.0
          0.0364 -0.00585 0.0
          0.0351 -0.00585 0.0
          0.0338 -0.00585 0.0
          0.0325 -0.00585 0.0
          0.0312 -0.00585 0.0
          0.0299 -0.00585 0.0
          0.0286 -0.00585 0.0
          0.0273 -0.00585 0.0
          0.026 -0.00585 0.0
          0.0247 -0.00585 0.0
          0.0234 -0.00585 0.0
          0.0221 -0.00585 0.0
          0.0208 -0.00585 0.0
          0.0195 -0.00585 0.0
          0.0182 -0.00585 0.0
          0.0169 -0.00585 0.0
          0.0156 -0.00585 0.0
          0.0143 -0.00585 0.0
          0.013 -0.00585 0.0
          0.0117 -0.00585 0.0
          0.0104 -0.00585 0.0
          0.0091 -0.00585 0.0
          0.0078 -0.00585 0.0
          0.0065 -0.00585 0.0
          0.0052 -0.00585 0.0
          0.0039 -0.00585 0.0
          0.0026 -0.00585 0.0
          0.0013 -0.00585 0.0
          0 -0.00585 0.0
          0.039 -0.00715 0.0
          0.0377 -0.00715 0.0
          0.0364 -0.00715 0.0
          0.0351 -0.00715 0.0
          0.0338 -0.00715 0.0
          0.0325 -0.00715 0.0
          0.0312 -0.00715 0.0
          0.0299 -0.00715 0.0
          0.0286 -0.00715 0.0
          0.0273 -0.00715 0.0
          0.026 -0.00715 0.0
          0.0247 -0.00715 0.0
          0.0234 -0.00715 0.0
          0.0221 -0.00715 0.0
          0.0208 -0.00715 0.0
          0.0195 -0.00715 0.0
          0.0182 -0.00715 0.0
          0.0169 -0.00715 0.0
          0.0156 -0.00715 0.0
          0.0143 -0.00715 0.0
          0.013 -0.00715 0.0
          0.0117 -0.00715 0.0
          0.0104 -0.00715 0.0
          0.0091 -0.00715 0.0
          0.0078 -0.00715 0.0
          0.0065 -0.00715 0.0
          0.0052 -0.00715 0.0
          0.0039 -0.00715 0.0
          0.0026 -0.00715 0.0
          0.0013 -0.00715 0.0
          0 -0.00715 0.0
          0.039 -0.00845 0.0
          0.0377 -0.00845 0.0
          0.0364 -0.00845 0.0
          0.0351 -0.00845 0.0
          0.0338 -0.00845 0.0
          0.0325 -0.00845 0.0
          0.0312 -0.00845 0.0
          0.0299 -0.00845 0.0
          0.0286 -0.00845 0.0
          0.0273 -0.00845 0.0
          0.026 -0.00845 0.0
          0.0247 -0.00845 0.0
          0.0234 -0.00845 0.0
          0.0221 -0.00845 0.0
          0.0208 -0.00845 0.0
          0.0195 -0.00845 0.0
          0.0182 -0.00845 0.0
          0.0169 -0.00845 0.0
          0.0156 -0.00845 0.0
          0.0143 -0.00845 0.0
          0.013 -0.00845 0.0
          0.0117 -0.00845 0.0
          0.0104 -0.00845 0.0
          0.0091 -0.00845 0.0
          0.0078 -0.00845 0.0
          0.0065 -0.00845 0.0
          0.0052 -0.00845 0.0
          0.0039 -0.00845 0.0
          0.0026 -0.00845 0.0
          0.0013 -0.00845 0.0
          0 -0.00845 0.0
          0.039 -0.00975 0.0
          0.0377 -0.00975 0.0
          0.0364 -0.00975 0.0
          0.0351 -0.00975 0.0
          0.0338 -0.00975 0.0
          0.0325 -0.00975 0.0
          0.0312 -0.00975 0.0
          0.0299 -0.00975 0.0
          0.0286 -0.00975 0.0
          0.0273 -0.00975 0.0
          0.026 -0.00975 0.0
          0.0247 -0.00975 0.0
          0.0234 -0.00975 0.0
          0.0221 -0.00975 0.0
          0.0208 -0.00975 0.0
          0.0195 -0.00975 0.0
          0.0182 -0.00975 0.0
          0.0169 -0.00975 0.0
          0.0156 -0.00975 0.0
          0.0143 -0.00975 0.0
          0.013 -0.00975 0.0
          0.0117 -0.00975 0.0
          0.0104 -0.00975 0.0
          0.0091 -0.00975 0.0
          0.0078 -0.00975 0.0
          0.0065 -0.00975 0.0
          0.0052 -0.00975 0.0
          0.0039 -0.00975 0.0
          0.0026 -0.00975 0.0
          0.0013 -0.00975 0.0
          0 -0.00975 0.0
          0.039 -0.01105 0.0
          0.0377 -0.01105 0.0
          0.0364 -0.01105 0.0
          0.0351 -0.01105 0.0
          0.0338 -0.01105 0.0
          0.0325 -0.01105 0.0
          0.0312 -0.01105 0.0
          0.0299 -0.01105 0.0
          0.0286 -0.01105 0.0
          0.0273 -0.01105 0.0
          0.026 -0.01105 0.0
          0.0247 -0.01105 0.0
          0.0234 -0.01105 0.0
          0.0221 -0.01105 0.0
          0.0208 -0.01105 0.0
          0.0195 -0.01105 0.0
          0.0182 -0.01105 0.0
          0.0169 -0.01105 0.0
          0.0156 -0.01105 0.0
          0.0143 -0.01105 0.0
          0.013 -0.01105 0.0
          0.0117 -0.01105 0.0
          0.0104 -0.01105 0.0
          0.0091 -0.01105 0.0
          0.0078 -0.01105 0.0
          0.0065 -0.01105 0.0
          0.0052 -0.01105 0.0
          0.0039 -0.01105 0.0
          0.0026 -0.01105 0.0
          0.0013 -0.01105 0.0
          0 -0.01105 0.0
          0.039 -0.01235 0.0
          0.0377 -0.01235 0.0
          0.0364 -0.01235 0.0
          0.0351 -0.01235 0.0
          0.0338 -0.01235 0.0
          0.0325 -0.01235 0.0
          0.0312 -0.01235 0.0
          0.0299 -0.01235 0.0
          0.0286 -0.01235 0.0
          0.0273 -0.01235 0.0
          0.026 -0.01235 0.0
          0.0247 -0.01235 0.0
          0.0234 -0.01235 0.0
          0.0221 -0.01235 0.0
          0.0208 -0.01235 0.0
          0.0195 -0.01235 0.0
          0.0182 -0.01235 0.0
          0.0169 -0.01235 0.0
          0.0156 -0.01235 0.0
          0.0143 -0.01235 0.0
          0.013 -0.01235 0.0
          0.0117 -0.01235 0.0
          0.0104 -0.01235 0.0
          0.0091 -0.01235 0.0
          0.0078 -0.01235 0.0
          0.0065 -0.01235 0.0
          0.0052 -0.01235 0.0
          0.0039 -0.01235 0.0
          0.0026 -0.01235 0.0
          0.0013 -0.01235 0.0
          0 -0.01235 0.0
          0.039 -0.01365 0.0
          0.0377 -0.01365 0.0
          0.0364 -0.01365 0.0
          0.0351 -0.01365 0.0
          0.0338 -0.01365 0.0
          0.0325 -0.01365 0.0
          0.0312 -0.01365 0.0
          0.0299 -0.01365 0.0
          0.0286 -0.01365 0.0
          0.0273 -0.01365 0.0
          0.026 -0.01365 0.0
          0.0247 -0.01365 0.0
          0.0234 -0.01365 0.0
          0.0221 -0.01365 0.0
          0.0208 -0.01365 0.0
          0.0195 -0.01365 0.0
          0.0182 -0.01365 0.0
          0.0169 -0.01365 0.0
          0.0156 -0.01365 0.0
          0.0143 -0.01365 0.0
          0.013 -0.01365 0.0
          0.0117 -0.01365 0.0
          0.0104 -0.01365 0.0
          0.0091 -0.01365 0.0
          0.0078 -0.01365 0.0
          0.0065 -0.01365 0.0
          0.0052 -0.01365 0.0
          0.0039 -0.01365 0.0
          0.0026 -0.01365 0.0
          0.0013 -0.01365 0.0
          0 -0.01365 0.0
          0.039 -0.01495 0.0
          0.0377 -0.01495 0.0
          0.0364 -0.01495 0.0
          0.0351 -0.01495 0.0
          0.0338 -0.01495 0.0
          0.0325 -0.01495 0.0
          0.0312 -0.01495 0.0
          0.0299 -0.01495 0.0
          0.0286 -0.01495 0.0
          0.0273 -0.01495 0.0
          0.026 -0.01495 0.0
          0.0247 -0.01495 0.0
          0.0234 -0.01495 0.0
          0.0221 -0.01495 0.0