<?xml version="1.0"?>
<VTKFile type="UnstructuredGrid" version="0.1" byte_order="LittleEndian">
  <UnstructuredGrid>
    <Piece NumberOfPoints="961" NumberOfCells="900">
      <PointData Scalars="Temperature">
        <DataArray type="Float32" Name="Temperature" format="ascii">
          21.0032
          21.0538
          21.1063
          21.1586
          21.2029
          21.2338
          21.2494
          21.2548
          21.2524
          21.243
          21.2245
          21.2002
          21.1755
          21.1572
          21.1479
          21.148
          21.1576
          21.1761
          21.201
          21.2256
          21.2442
          21.2538
          21.2564
          21.2516
          21.2372
          21.2091
          21.1694
          21.1236
          21.0795
          21.0393
          21.0024
          21.0522
          21.8664
          22.7392
          23.6154
          24.3793
          24.8763
          25.1199
          25.1838
          25.1583
          25.0071
          24.705
          24.2733
          23.8522
          23.5412
          23.3947
          23.3965
          23.547
          23.8622
          24.2878
          24.7234
          25.0283
          25.1814
          25.2094
          25.1521
          24.9285
          24.4751
          23.787
          23.0173
          22.2805
          21.6352
          21.0382
          21.0971
          22.615
          24.2652
          26.2354
          27.84
          28.8762
          29.1141
          29.176
          29.1512
          29.0034
          28.3247
          27.369
          26.3401
          25.7648
          25.5008
          25.5043
          25.7755
          26.3589
          27.3978
          28.3617
          29.0459
          29.1957
          29.2229
          29.1674
          28.9489
          27.9917
          26.5334
          24.78
          23.3874
          22.1835
          21.0713
          21.1343
          23.2331
          25.5345
          28.287
          33.2298
          33.2304
          33.2306
          33.2308
          33.2308
          33.2307
          33.2303
          29.7888
          28.4462
          27.6927
          27.3567
          27.3616
          27.7076
          28.4723
          29.8287
          33.2957
          33.2961
          33.2962
          33.2962
          33.2961
          33.2958
          33.2953
          28.6797
          26.2483
          24.3118
          22.6462
          21.0992
          21.1614
          23.6771
          26.3831
          29.5868
          33.231
          33.2312
          33.2315
          33.2316
          33.2316
          33.2315
          33.2314
          31.3764
          30.0043
          29.2434
          28.8946
          28.9005
          29.2612
          30.0354
          31.4235
          33.2968
          33.2969
          33.297
          33.297
          33.2969
          33.2967
          33.2965
          30.0476
          27.2553
          24.9981
          22.9997
          21.1208
          21.1785
          23.9464
          26.8489
          29.9584
          33.233
          33.2332
          33.2334
          33.2335
          33.2335
          33.2335
          33.2334
          32.0347
          31.0566
          30.4079
          30.0993
          30.1058
          30.4277
          31.0904
          32.0839
          33.2988
          33.2989
          33.2989
          33.2989
          33.2988
          33.2987
          33.2985
          30.4789
          27.8409
          25.4454
          23.2431
          21.1359
          21.1877
          24.087
          27.0515
          30.1092
          33.236
          33.2362
          33.2364
          33.2365
          33.2365
          33.2365
          33.2365
          32.4226
          31.7315
          31.2454
          31.0012
          31.008
          31.2662
          31.7666
          32.4726
          33.3019
          33.3019
          33.3019
          33.3019
          33.3018
          33.3017
          33.3015
          30.674
          28.1296
          25.7074
          23.3947
          21.1455
          21.1921
          24.1522
          27.1426
          30.1754
          33.2401
          33.2403
          33.2404
          33.2405
          33.2406
          33.2406
          33.2406
          32.6751
          32.1878
          31.8364
          31.6565
          31.6636
          31.8577
          32.2235
          32.7256
          33.3059
          33.3059
          33.3059
          33.3059
          33.3058
          33.3057
          33.3055
          30.771
          28.2789
          25.8505
          23.4824
          21.1512
          21.1942
          24.1823
          27.1846
          30.2069
          33.2452
          33.2453
          33.2455
          33.2456
          33.2456
          33.2457
          33.2457
          32.8483
          32.5042
          32.254
          32.1256
          32.1327
          32.2755
          32.5402
          32.8989
          33.311
          33.311
          33.311
          33.3109
          33.3109
          33.3107
          33.3106
          30.8227
          28.3582
          25.928
          23.5309
          21.1543
          21.1951
          24.1967
          27.2051
          30.2237
          33.2513
          33.2514
          33.2516
          33.2517
          33.2518
          33.2518
          33.2518
          32.9705
          32.727
          32.5499
          32.4597
          32.4669
          32.5715
          32.7631
          33.0212
          33.3171
          33.3171
          33.3171
          33.317
          33.3169
          33.3168
          33.3167
          30.8523
          28.4018
          25.9705
          23.5575
          21.1561
          21.1956
          24.2042
          27.2165
          30.2345
          33.2584
          33.2586
          33.2587
          33.2588
          33.2589
          33.2589
          33.259
          33.0586
          32.8858
          32.7607
          32.6979
          32.7052
          32.7824
          32.922
          33.1093
          33.3242
          33.3242
          33.3242
          33.3241
          33.3241
          33.3239
          33.3238
          30.871
          28.4271
          25.9945
          23.5725
          21.157
          21.1959
          24.2088
          27.224
          30.2431
          33.2666
          33.2668
          33.2669
          33.267
          33.2671
          33.2671
          33.2671
          33.1235
          33.0005
          32.9122
          32.8689
          32.8761
          32.9339
          33.0367
          33.1742
          33.3324
          33.3324
          33.3323
          33.3323
          33.3322
          33.3321
          33.3319
          30.8843
          28.4431
          26.0091
          23.5814
          21.1576
          21.1962
          24.2124
          27.2303
          30.2511
          33.2758
          33.276
          33.2761
          33.2762
          33.2763
          33.2764
          33.2764
          33.1726
          33.0846
          33.0222
          32.9927
          33
          33.0439
          33.1208
          33.2233
          33.3416
          33.3416
          33.3415
          33.3415
          33.3414
          33.3412
          33.3411
          30.8954
          28.4547
          26.0189
          23.5873
          21.158
          21.1964
          24.2156
          27.2362
          30.2593
          33.286
          33.2862
          33.2864
          33.2865
          33.2866
          33.2866
          33.2866
          33.211
          33.1478
          33.1037
          33.0839
          33.0911
          33.1254
          33.1839
          33.2617
          33.3518
          33.3518
          33.3517
          33.3517
          33.3516
          33.3514
          33.3513
          30.9057
          28.4644
          26.0266
          23.5917
          21.1583
          21.1966
          24.2188
          27.2423
          30.2681
          33.2973
          33.2975
          33.2976
          33.2978
          33.2979
          33.2979
          33.298
          33.2423
          33.1965
          33.1655
          33.1526
          33.1598
          33.1872
          33.2327
          33.2929
          33.363
          33.363
          33.363
          33.3629
          33.3628
          33.3627
          33.3625
          30.9162
          28.4736
          26.0337
          23.5956
          21.1585
          21.1968
          24.2223
          27.2489
          30.2776
          33.3096
          33.3098
          33.3099
          33.3101
          33.3102
          33.3103
          33.3103
          33.2689
          33.2357
          33.214
          33.2061
          33.2133
          33.2356
          33.2718
          33.3195
          33.3753
          33.3753
          33.3753
          33.3752
          33.375
          33.3749
          33.3747
          30.9276
          28.4835
          26.0412
          23.5998
          21.1588
          21.197
          24.2263
          27.2563
          30.288
          33.3229
          33.3231
          33.3232
          33.3234
          33.3236
          33.3237
          33.3237
          33.2928
          33.2687
          33.2537
          33.2494
          33.2567
          33.2754
          33.3048
          33.3433
          33.3887
          33.3887
          33.3886
          33.3884
          33.3883
          33.3881
          33.3879
          30.9404
          28.495
          26.0502
          23.6049
          21.1591
          21.1973
          24.231
          27.2648
          30.2997
          33.3371
          33.3373
          33.3376
          33.3378
          33.338
          33.3381
          33.3382
          33.3151
          33.298
          33.2881
          33.2865
          33.2937
          33.3097
          33.334
          33.3656
          33.4031
          33.403
          33.4029
          33.4027
          33.4025
          33.4023
          33.4022
          30.9555
          28.5098
          26.0622
          23.6119
          21.1595
          21.1977
          24.2371
          27.2755
          30.3133
          33.3524
          33.3526
          33.3529
          33.3532
          33.3535
          33.3537
          33.3538
          33.337
          33.3254
          33.3196
          33.3202
          33.3274
          33.3412
          33.3614
          33.3874
          33.4186
          33.4185
          33.4183
          33.4181
          33.4178
          33.4175
          33.4173
          30.9747
          28.5304
          26.08
          23.6225
          21.1602
          21.1984
          24.2463
          27.2905
          30.3301
          33.3685
          33.3688
          33.3692
          33.3697
          33.3701
          33.3704
          33.3705
          33.3593
          33.3524
          33.3502
          33.3526
          33.3598
          33.3717
          33.3884
          33.4096
          33.4352
          33.4351
          33.4348
          33.4344
          33.434
          33.4336
          33.4334
          31.0008
          28.5616
          26.1084
          23.6399
          21.1614
          21.199
          24.262
          27.3143
          30.3535
          33.3855
          33.3858
          33.3864
          33.3871
          33.3878
          33.3883
          33.3885
          33.3826
          33.3805
          33.3816
          33.3858
          33.393
          33.4031
          33.4163
          33.4329
          33.4531
          33.4529
          33.4525
          33.4518
          33.4511
          33.4506
          33.4503
          31.0393
          28.6127
          26.1568
          23.6703
          21.163
          21.2028
          24.2915
          27.3579
          30.3908
          33.4031
          33.4036
          33.4045
          33.4056
          33.4067
          33.4076
          33.4079
          33.4079
          33.4108
          33.4156
          33.4216
          33.4288
          33.437
          33.4466
          33.4581
          33.4724
          33.4721
          33.4713
          33.4702
          33.4691
          33.4683
          33.4679
          31.1006
          28.7007
          26.2434
          23.7245
          21.1683
          21.1992
          24.3563
          27.4445
          30.4591
          33.4212
          33.4218
          33.4232
          33.4251
          33.427
          33.4284
          33.4289
          33.4361
          33.4449
          33.4538
          33.462
          33.4692
          33.4752
          33.4805
          33.4861
          33.4933
          33.4928
          33.4914
          33.4896
          33.4878
          33.4865
          33.4859
          31.2035
          28.8583
          26.4013
          23.8293
          21.1673
          21.2431
          24.4812
          27.6342
          30.594
          33.4393
          33.4403
          33.4425
          33.4456
          33.4488
          33.4512
          33.4521
          33.4684
          33.4845
          33.4985
          33.5092
          33.5163
          33.5198
          33.52
          33.5182
          33.5163
          33.5154
          33.5131
          33.51
          33.507
          33.5048
          33.5039
          31.381
          29.1431
          26.7033
          24.0151
          21.2151
          21.1106
          24.8383
          28.028
          30.8815
          33.4568
          33.4582
          33.4618
          33.4669
          33.4724
          33.4766
          33.4782
          33.5067
          33.5321
          33.5521
          33.5657
          33.5728
          33.5733
          33.5675
          33.5563
          33.5422
          33.5406
          33.5365
          33.5312
          33.5262
          33.5227
          33.5214
          31.6804
          29.6656
          27.262
          24.4591
          21.0872
          21.8478
          25.3643
          29.0024
          31.4374
          33.4728
          33.4748
          33.4804
          33.4887
          33.4982
          33.506
          33.5092
          33.5544
          33.5914
          33.6178
          33.6343
          33.6413
          33.6388
          33.6264
          33.6035
          33.5728
          33.5697
          33.5622
          33.553
          33.5449
          33.5393
          33.5373
          32.1467
          30.5584
          28.4611
          25.0991
          21.8342
          18.9464
          28.2948
          30.8521
          32.3337
          33.4855
          33.4886
          33.4974
          33.51
          33.5254
          33.5425
          33.5484
          33.6188
          33.6669
          33.6987
          33.7178
          33.7248
          33.7197
          33.7016
          33.6671
          33.6112
          33.6056
          33.5895
          33.5745
          33.562
          33.5531
          33.5499
          32.7861
          31.8889
          30.5895
          28.1758
          18.9294
          33.4357
          33.4529
          33.4659
          33.4783
          33.4905
          33.4988
          33.5117
          33.5293
          33.5518
          33.5798
          33.6241
          33.7111
          33.7618
          33.7976
          33.8188
          33.8258
          33.8186
          33.7965
          33.7584
          33.6831
          33.6429
          33.6165
          33.5943
          33.5766
          33.5632
          33.5543
          33.541
          33.528
          33.5152
          33.5021
          33.4848
          33.4426
          33.4545
          33.4666
          33.4788
          33.4914
          33.5055
          33.5226
          33.5447
          33.5736
          33.6121
          33.6636
          33.7193
          33.7699
          33.8052
          33.8264
          33.8334
          33.8264
          33.805
          33.7678
          33.7227
          33.6772
          33.6402
          33.6108
          33.5878
          33.57
          33.555
          33.5414
          33.5283
          33.5159
          33.5037
          33.4917
          33.4502
          33.4577
          33.4677
          33.4797
          33.4934
          33.5095
          33.5293
          33.5547
          33.5878
          33.6314
          33.6878
          33.746
          33.7933
          33.828
          33.849
          33.8561
          33.8494
          33.8291
          33.7966
          33.7542
          33.704
          33.657
          33.6217
          33.595
          33.574
          33.5569
          33.542
          33.5288
          33.5169
          33.5069
          33.4994
          33.4558
          33.4591
          33.4683
          33.4802
          33.4942
          33.5109
          33.5316
          33.5581
          33.5926
          33.6379
          33.6993
          33.7618
          33.8089
          33.8432
          33.864
          33.8711
          33.8646
          33.845
          33.8135
          33.7714
          33.7161
          33.663
          33.6256
          33.5974
          33.5755
          33.5576
          33.5424
          33.529
          33.5174
          33.5082
          33.505
        </DataArray>
      </PointData>
      <CellData>
      </CellData>
      <Points>
        <DataArray type="Float32" NumberOfComponents="3" format="ascii">
          0.039 0.00195 0.0
          0.0377 0.00195 0.0
          0.0364 0.00195 0.0
          0.0351 0.00195 0.0
          0.0338 0.00195 0.0
          0.0325 0.00195 0.0
          0.0312 0.00195 0.0
          0.0299 0.00195 0.0
          0.0286 0.00195 0.0
          0.0273 0.00195 0.0
          0.026 0.00195 0.0
          0.0247 0.00195 0.0
          0.0234 0.00195 0.0
          0.0221 0.00195 0.0
          0.0208 0.00195 0.0
          0.0195 0.00195 0.0
          0.0182 0.00195 0.0
          0.0169 0.00195 0.0
          0.0156 0.00195 0.0
          0.0143 0.00195 0.0
          0.013 0.00195 0.0
          0.0117 0.00195 0.0
          0.0104 0.00195 0.0
          0.0091 0.00195 0.0
          0.0078 0.00195 0.0
          0.0065 0.00195 0.0
          0.0052 0.00195 0.0
          0.0039 0.00195 0.0
          0.0026 0.00195 0.0
          0.0013 0.00195 0.0
          0 0.00195 0.0
          0.039 0.00065 0.0
          0.0377 0.00065 0.0
          0.0364 0.00065 0.0
          0.0351 0.00065 0.0
          0.0338 0.00065 0.0
          0.0325 0.00065 0.0
          0.0312 0.00065 0.0
          0.0299 0.00065 0.0
          0.0286 0.00065 0.0
          0.0273 0.00065 0.0
          0.026 0.00065 0.0
          0.0247 0.00065 0.0
          0.0234 0.00065 0.0
          0.0221 0.00065 0.0
          0.0208 0.00065 0.0
          0.0195 0.00065 0.0
          0.0182 0.00065 0.0
          0.0169 0.00065 0.0
          0.0156 0.00065 0.0
          0.0143 0.00065 0.0
          0.013 0.00065 0.0
          0.0117 0.00065 0.0
          0.0104 0.00065 0.0
          0.0091 0.00065 0.0
          0.0078 0.00065 0.0
          0.0065 0.00065 0.0
          0.0052 0.00065 0.0
          0.0039 0.00065 0.0
          0.0026 0.00065 0.0
          0.0013 0.00065 0.0
          0 0.00065 0.0
          0.039 -0.00065 0.0
          0.0377 -0.00065 0.0
          0.0364 -0.00065 0.0
          0.0351 -0.00065 0.0
          0.0338 -0.00065 0.0
          0.0325 -0.00065 0.0
          0.0312 -0.00065 0.0
          0.0299 -0.00065 0.0
          0.0286 -0.00065 0.0
          0.0273 -0.00065 0.0
          0.026 -0.00065 0.0
          0.0247 -0.00065 0.0
          0.0234 -0.00065 0.0
          0.0221 -0.00065 0.0
          0.0208 -0.00065 0.0
          0.0195 -0.00065 0.0
          0.0182 -0.00065 0.0
          0.0169 -0.00065 0.0
          0.0156 -0.00065 0.0
          0.0143 -0.00065 0.0
          0.013 -0.00065 0.0
          0.0117 -0.00065 0.0
          0.0104 -0.00065 0.0
          0.0091 -0.00065 0.0
          0.0078 -0.00065 0.0
          0.0065 -0.00065 0.0
          0.0052 -0.00065 0.0
          0.0039 -0.00065 0.0
          0.0026 -0.00065 0.0
          0.0013 -0.00065 0.0
          0 -0.00065 0.0
          0.039 -0.00195 0.0
          0.0377 -0.00195 0.0
          0.0364 -0.00195 0.0
          0.0351 -0.00195 0.0
          0.0338 -0.00195 0.0
          0.0325 -0.00195 0.0
          0.0312 -0.00195 0.0
          0.0299 -0.00195 0.0
          0.0286 -0.00195 0.0
          0.0273 -0.00195 0.0
          0.026 -0.00195 0.0
          0.0247 -0.00195 0.0
          0.0234 -0.00195 0.0
          0.0221 -0.00195 0.0
          0.0208 -0.00195 0.0
          0.0195 -0.00195 0.0
          0.0182 -0.00195 0.0
          0.0169 -0.00195 0.0
          0.0156 -0.00195 0.0
          0.0143 -0.00195 0.0
          0.013 -0.00195 0.0
          0.0117 -0.00195 0.0
          0.0104 -0.00195 0.0
          0.0091 -0.00195 0.0
          0.0078 -0.00195 0.0
          0.0065 -0.00195 0.0
          0.0052 -0.00195 0.0
          0.0039 -0.00195 0.0
          0.0026 -0.00195 0.0
          0.0013 -0.00195 0.0
          0 -0.00195 0.0
          0.039 -0.00325 0.0
          0.0377 -0.00325 0.0
          0.0364 -0.00325 0.0
          0.0351 -0.00325 0.0
          0.0338 -0.00325 0.0
          0.0325 -0.00325 0.0
          0.0312 -0.00325 0.0
          0.0299 -0.00325 0.0
          0.0286 -0.00325 0.0
          0.0273 -0.00325 0.0
          0.026 -0.00325 0.0
          0.0247 -0.00325 0.0
          0.0234 -0.00325 0.0
          0.0221 -0.00325 0.0
          0.0208 -0.00325 0.0
          0.0195 -0.00325 0.0
          0.0182 -0.00325 0.0
          0.0169 -0.00325 0.0
          0.0156 -0.00325 0.0
          0.0143 -0.00325 0.0
          0.013 -0.00325 0.0
          0.0117 -0.00325 0.0
          0.0104 -0.00325 0.0
          0.0091 -0.00325 0.0
          0.0078 -0.00325 0.0
          0.0065 -0.00325 0.0
          0.0052 -0.00325 0.0
          0.0039 -0.00325 0.0
          0.0026 -0.00325 0.0
          0.0013 -0.00325 0.0
          0 -0.00325 0.0
          0.039 -0.00455 0.0
          0.0377 -0.00455 0.0
          0.0364 -0.00455 0.0
          0.0351 -0.00455 0.0
          0.0338 -0.00455 0.0
          0.0325 -0.00455 0.0
          0.0312 -0.00455 0.0
          0.0299 -0.00455 0.0
          0.0286 -0.00455 0.0
          0.0273 -0.00455 0.0
          0.026 -0.00455 0.0
          0.0247 -0.00455 0.0
          0.0234 -0.00455 0.0
          0.0221 -0.00455 0.0
          0.0208 -0.00455 0.0
          0.0195 -0.00455 0.0
          0.0182 -0.00455 0.0
          0.0169 -0.00455 0.0
          0.0156 -0.00455 0.0
          0.0143 -0.00455 0.0
          0.013 -0.00455 0.0
          0.0117 -0.00455 0.0
          0.0104 -0.00455 0.0
          0.0091 -0.00455 0.0
          0.0078 -0.00455 0.0
          0.0065 -0.00455 0.0
          0.0052 -0.00455 0.0
          0.0039 -0.00455 0.0
          0.0026 -0.00455 0.0
          0.0013 -0.00455 0.0
          0 -0.00455 0.0
          0.039 -0.00585 0.0
          0.0377 -0.00585 0.0
          0.0364 -0.00585 0.0
          0.0351 -0.00585 0.0
          0.0338 -0.00585 0.0
          0.0325 -0.00585 0.0
          0.0312 -0.00585 0.0
          0.0299 -0.00585 0.0
          0.0286 -0.00585 0.0
          0.0273 -0.00585 0.0
          0.026 -0.00585 0.0
          0.0247 -0.00585 0.0
          0.0234 -0.00585 0.0
          0.0221 -0.00585 0.0
          0.0208 -0.00585 0.0
          0.0195 -0.00585 0.0
          0.0182 -0.00585 0.0
          0.0169 -0.00585 0.0
          0.0156 -0.00585 0.0
          0.0143 -0.00585 0.0
          0.013 -0.00585 0.0
          0.0117 -0.00585 0.0
          0.0104 -0.00585 0.0
          0.0091 -0.00585 0.0
          0.0078 -0.00585 0.0
          0.0065 -0.00585 0.0
          0.0052 -0.00585 0.0
          0.0039 -0.00585 0.0
          0.0026 -0.00585 0.0
          0.0013 -0.00585 0.0
          0 -0.00585 0.0
          0.039 -0.00715 0.0
          0.0377 -0.00715 0.0
          0.0364 -0.00715 0.0
          0.0351 -0.00715 0.0
          0.0338 -0.00715 0.0
          0.0325 -0.00715 0.0
          0.0312 -0.00715 0.0
          0.0299 -0.00715 0.0
          0.0286 -0.00715 0.0
          0.0273 -0.00715 0.0
          0.026 -0.00715 0.0
          0.0247 -0.00715 0.0
          0.0234 -0.00715 0.0
          0.0221 -0.00715 0.0
          0.0208 -0.00715 0.0
          0.0195 -0.00715 0.0
          0.0182 -0.00715 0.0
          0.0169 -0.00715 0.0
          0.0156 -0.00715 0.0
          0.0143 -0.00715 0.0
          0.013 -0.00715 0.0
          0.0117 -0.00715 0.0
          0.0104 -0.00715 0.0
          0.0091 -0.00715 0.0
          0.0078 -0.00715 0.0
          0.0065 -0.00715 0.0
          0.0052 -0.00715 0.0
          0.0039 -0.00715 0.0
          0.0026 -0.00715 0.0
          0.0013 -0.00715 0.0
          0 -0.00715 0.0
          0.039 -0.00845 0.0
          0.0377 -0.00845 0.0
          0.0364 -0.00845 0.0
          0.0351 -0.00845 0.0
          0.0338 -0.00845 0.0
          0.0325 -0.00845 0.0
          0.0312 -0.00845 0.0
          0.0299 -0.00845 0.0
          0.0286 -0.00845 0.0
          0.0273 -0.00845 0.0
          0.026 -0.00845 0.0
          0.0247 -0.00845 0.0
          0.0234 -0.00845 0.0
          0.0221 -0.00845 0.0
          0.0208 -0.00845 0.0
          0.0195 -0.00845 0.0
          0.0182 -0.00845 0.0
          0.0169 -0.00845 0.0
          0.0156 -0.00845 0.0
          0.0143 -0.00845 0.0
          0.013 -0.00845 0.0
          0.0117 -0.00845 0.0
          0.0104 -0.00845 0.0
          0.0091 -0.00845 0.0
          0.0078 -0.00845 0.0
          0.0065 -0.00845 0.0
          0.0052 -0.00845 0.0
          0.0039 -0.00845 0.0
          0.0026 -0.00845 0.0
          0.0013 -0.00845 0.0
          0 -0.00845 0.0
          0.039 -0.00975 0.0
          0.0377 -0.00975 0.0
          0.0364 -0.00975 0.0
          0.0351 -0.00975 0.0
          0.0338 -0.00975 0.0
          0.0325 -0.00975 0.0
          0.0312 -0.00975 0.0
          0.0299 -0.00975 0.0
          0.0286 -0.00975 0.0
          0.0273 -0.00975 0.0
          0.026 -0.00975 0.0
          0.0247 -0.00975 0.0
          0.0234 -0.00975 0.0
          0.0221 -0.00975 0.0
          0.0208 -0.00975 0.0
          0.0195 -0.00975 0.0
          0.0182 -0.00975 0.0
          0.0169 -0.00975 0.0
          0.0156 -0.00975 0.0
          0.0143 -0.00975 0.0
          0.013 -0.00975 0.0
          0.0117 -0.00975 0.0
          0.0104 -0.00975 0.0
          0.0091 -0.00975 0.0
          0.0078 -0.00975 0.0
          0.0065 -0.00975 0.0
          0.0052 -0.00975 0.0
          0.0039 -0.00975 0.0
          0.0026 -0.00975 0.0
          0.0013 -0.00975 0.0
          0 -0.00975 0.0
          0.039 -0.01105 0.0
          0.0377 -0.01105 0.0
          0.0364 -0.01105 0.0
          0.0351 -0.01105 0.0
          0.0338 -0.01105 0.0
          0.0325 -0.01105 0.0
          0.0312 -0.01105 0.0
          0.0299 -0.01105 0.0
          0.0286 -0.01105 0.0
          0.0273 -0.01105 0.0
          0.026 -0.01105 0.0
          0.0247 -0.01105 0.0
          0.0234 -0.01105 0.0
          0.0221 -0.01105 0.0
          0.0208 -0.01105 0.0
          0.0195 -0.01105 0.0
          0.0182 -0.01105 0.0
          0.0169 -0.01105 0.0
          0.0156 -0.01105 0.0
          0.0143 -0.01105 0.0
          0.013 -0.01105 0.0
          0.0117 -0.01105 0.0
          0.0104 -0.01105 0.0
          0.0091 -0.01105 0.0
          0.0078 -0.01105 0.0
          0.0065 -0.01105 0.0
          0.0052 -0.01105 0.0
          0.0039 -0.01105 0.0
          0.0026 -0.01105 0.0
          0.0013 -0.01105 0.0
          0 -0.01105 0.0
          0.039 -0.01235 0.0
          0.0377 -0.01235 0.0
          0.0364 -0.01235 0.0
          0.0351 -0.01235 0.0
          0.0338 -0.01235 0.0
          0.0325 -0.01235 0.0
          0.0312 -0.01235 0.0
          0.0299 -0.01235 0.0
          0.0286 -0.01235 0.0
          0.0273 -0.01235 0.0
          0.026 -0.01235 0.0
          0.0247 -0.01235 0.0
          0.0234 -0.01235 0.0
          0.0221 -0.01235 0.0
          0.0208 -0.01235 0.0
          0.0195 -0.01235 0.0
          0.0182 -0.01235 0.0
          0.0169 -0.01235 0.0
          0.0156 -0.01235 0.0
          0.0143 -0.01235 0.0
          0.013 -0.01235 0.0
          0.0117 -0.01235 0.0
          0.0104 -0.01235 0.0
          0.0091 -0.01235 0.0
          0.0078 -0.01235 0.0
          0.0065 -0.01235 0.0
          0.0052 -0.01235 0.0
          0.0039 -0.01235 0.0
          0.0026 -0.01235 0.0
          0.0013 -0.01235 0.0
          0 -0.01235 0.0
          0.039 -0.01365 0.0
          0.0377 -0.01365 0.0
          0.0364 -0.01365 0.0
          0.0351 -0.01365 0.0
          0.0338 -0.01365 0.0
          0.0325 -0.01365 0.0
          0.0312 -0.01365 0.0
          0.0299 -0.01365 0.0
          0.0286 -0.01365 0.0
          0.0273 -0.01365 0.0
          0.026 -0.01365 0.0
          0.0247 -0.01365 0.0
          0.0234 -0.01365 0.0
          0.0221 -0.01365 0.0
          0.0208 -0.01365 0.0
          0.0195 -0.01365 0.0
          0.0182 -0.01365 0.0
          0.0169 -0.01365 0.0
          0.0156 -0.01365 0.0
          0.0143 -0.01365 0.0
          0.013 -0.01365 0.0
          0.0117 -0.01365 0.0
          0.0104 -0.01365 0.0
          0.0091 -0.01365 0.0
          0.0078 -0.01365 0.0
          0.0065 -0.01365 0.0
          0.0052 -0.01365 0.0
          0.0039 -0.01365 0.0
          0.0026 -0.01365 0.0
          0.0013 -0.01365 0.0
          0 -0.01365 0.0
          0.039 -0.01495 0.0
          0.0377 -0.01495 0.0
          0.0364 -0.01495 0.0
          0.0351 -0.01495 0.0
          0.0338 -0.01495 0.0
          0.0325 -0.01495 0.0
          0.0312 -0.01495 0.0
          0.0299 -0.01495 0.0
          0.0286 -0.01495 0.0
          0.0273 -0.01495 0.0
          0.026 -0.01495 0.0
          0.0247 -0.01495 0.0
          0.0234 -0.01495 0.0
          0.0221 -0.01495 0.0