<?xml version="1.0"?>
<VTKFile type="UnstructuredGrid" version="0.1" byte_order="LittleEndian">
  <UnstructuredGrid>
    <Piece NumberOfPoints="961" NumberOfCells="900">
      <PointData Scalars="Temperature">
        <DataArray type="Float32" Name="Temperature" format="ascii">
          21.0027
          21.0465
          21.0918
          21.1369
          21.1752
          21.2018
          21.2154
          21.22
          21.2179
          21.2098
          21.1938
          21.1728
          21.1515
          21.1357
          21.1277
          21.1278
          21.1361
          21.1521
          21.1737
          21.1949
          21.211
          21.2193
          21.2216
          21.2174
          21.205
          21.1807
          21.1464
          21.1068
          21.0687
          21.0339
          21.0021
          21.0451
          21.7479
          22.5015
          23.258
          23.9176
          24.3468
          24.5571
          24.6123
          24.5902
          24.4597
          24.1987
          23.8259
          23.4622
          23.1937
          23.0672
          23.0691
          23.1994
          23.4721
          23.8402
          24.2169
          24.4806
          24.613
          24.6372
          24.5877
          24.3944
          24.0026
          23.408
          22.7429
          22.1063
          21.5487
          21.033
          21.0838
          22.3942
          23.819
          25.5202
          26.9058
          27.8006
          28.006
          28.0595
          28.038
          27.9104
          27.3241
          26.4986
          25.6099
          25.1131
          24.8854
          24.8889
          25.1238
          25.6286
          26.5271
          27.3607
          27.9524
          28.0819
          28.1055
          28.0575
          27.8687
          27.0415
          25.7811
          24.2659
          23.0626
          22.0225
          21.0616
          21.116
          22.9279
          24.915
          27.2917
          31.5604
          31.5609
          31.5611
          31.5613
          31.5613
          31.5612
          31.5608
          28.5879
          27.4282
          26.7775
          26.4877
          26.4925
          26.7922
          27.454
          28.6275
          31.6256
          31.6259
          31.626
          31.626
          31.6259
          31.6257
          31.6252
          27.6358
          25.5345
          23.8612
          22.4222
          21.0857
          21.1393
          23.3112
          25.6477
          28.4141
          31.5615
          31.5617
          31.5619
          31.562
          31.5621
          31.562
          31.5619
          29.9589
          28.7734
          28.1163
          27.8154
          27.8212
          28.1339
          28.8042
          30.0055
          31.6266
          31.6268
          31.6268
          31.6268
          31.6267
          31.6265
          31.6264
          28.818
          26.4047
          24.4543
          22.7277
          21.1044
          21.1541
          23.5438
          26.05
          28.7352
          31.5635
          31.5637
          31.5638
          31.5639
          31.564
          31.5639
          31.5639
          30.5274
          29.6821
          29.1218
          28.8556
          28.862
          29.1413
          29.7156
          30.5761
          31.6286
          31.6287
          31.6287
          31.6287
          31.6286
          31.6285
          31.6283
          29.1908
          26.9108
          24.8408
          22.9379
          21.1174
          21.162
          23.6653
          26.2251
          28.8657
          31.5665
          31.5667
          31.5668
          31.5669
          31.5669
          31.5669
          31.5669
          30.8626
          30.265
          29.8451
          29.6345
          29.6413
          29.8656
          30.2998
          30.9122
          31.6317
          31.6317
          31.6317
          31.6317
          31.6316
          31.6315
          31.6313
          29.3597
          27.1606
          25.0673
          23.0691
          21.1257
          21.1659
          23.7218
          26.304
          28.9233
          31.5706
          31.5707
          31.5709
          31.5709
          31.571
          31.571
          31.571
          31.0812
          30.6594
          30.3557
          30.2007
          30.2077
          30.3768
          30.6948
          31.1311
          31.6357
          31.6357
          31.6357
          31.6357
          31.6356
          31.6355
          31.6354
          29.444
          27.2899
          25.1912
          23.1449
          21.1306
          21.1677
          23.7479
          26.3406
          28.951
          31.5757
          31.5758
          31.576
          31.5761
          31.5761
          31.5761
          31.5761
          31.2313
          30.9332
          30.7168
          30.6062
          30.6133
          30.7381
          30.9689
          31.2815
          31.6408
          31.6408
          31.6408
          31.6408
          31.6407
          31.6406
          31.6405
          29.4893
          27.3588
          25.2584
          23.1869
          21.1333
          21.1685
          23.7606
          26.3588
          28.9662
          31.5819
          31.582
          31.5821
          31.5822
          31.5823
          31.5823
          31.5823
          31.3377
          31.1264
          30.9731
          30.8955
          30.9026
          30.9945
          31.1622
          31.3879
          31.647
          31.647
          31.647
          31.6469
          31.6469
          31.6468
          31.6466
          29.5155
          27.397
          25.2955
          23.2102
          21.1349
          21.169
          23.7674
          26.3692
          28.9763
          31.5891
          31.5892
          31.5894
          31.5894
          31.5895
          31.5895
          31.5895
          31.4148
          31.2645
          31.1561
          31.1021
          31.1093
          31.1776
          31.3004
          31.465
          31.6542
          31.6542
          31.6542
          31.6541
          31.6541
          31.654
          31.6538
          29.5325
          27.4195
          25.3167
          23.2233
          21.1357
          21.1693
          23.7717
          26.3763
          28.9846
          31.5974
          31.5975
          31.5976
          31.5977
          31.5978
          31.5978
          31.5978
          31.472
          31.3647
          31.288
          31.2509
          31.258
          31.3095
          31.4006
          31.5223
          31.6625
          31.6625
          31.6624
          31.6624
          31.6623
          31.6622
          31.6621
          29.545
          27.4341
          25.3298
          23.2313
          21.1362
          21.1695
          23.7751
          26.3824
          28.9926
          31.6067
          31.6068
          31.607
          31.6071
          31.6071
          31.6072
          31.6072
          31.5158
          31.4387
          31.3844
          31.3592
          31.3663
          31.4059
          31.4746
          31.566
          31.6718
          31.6718
          31.6717
          31.6717
          31.6716
          31.6715
          31.6714
          29.5557
          27.4449
          25.3388
          23.2366
          21.1366
          21.1697
          23.7783
          26.3883
          29.0008
          31.617
          31.6172
          31.6173
          31.6174
          31.6175
          31.6176
          31.6176
          31.5505
          31.4948
          31.4563
          31.4395
          31.4466
          31.4778
          31.5306
          31.6007
          31.6821
          31.6821
          31.6821
          31.682
          31.6819
          31.6818
          31.6817
          29.5658
          27.4542
          25.3461
          23.2407
          21.1368
          21.1699
          23.7815
          26.3944
          29.0097
          31.6285
          31.6286
          31.6288
          31.6289
          31.629
          31.629
          31.629
          31.5792
          31.5386
          31.5114
          31.5006
          31.5077
          31.5329
          31.5745
          31.6294
          31.6936
          31.6935
          31.6935
          31.6934
          31.6933
          31.6932
          31.6931
          29.5763
          27.4632
          25.3529
          23.2445
          21.1371
          21.1701
          23.785
          26.4011
          29.0193
          31.6409
          31.6411
          31.6412
          31.6414
          31.6415
          31.6416
          31.6416
          31.6041
          31.5745
          31.5553
          31.5488
          31.5559
          31.5768
          31.6103
          31.6543
          31.706
          31.706
          31.706
          31.7059
          31.7058
          31.7056
          31.7055
          29.5875
          27.4728
          25.3601
          23.2485
          21.1373
          21.1703
          23.789
          26.4084
          29.0298
          31.6544
          31.6546
          31.6548
          31.6549
          31.6551
          31.6552
          31.6552
          31.6268
          31.6051
          31.5919
          31.5885
          31.5957
          31.6134
          31.6409
          31.6769
          31.7196
          31.7196
          31.7195
          31.7194
          31.7192
          31.7191
          31.7189
          29.6002
          27.484
          25.3687
          23.2533
          21.1376
          21.1706
          23.7936
          26.4169
          29.0415
          31.6689
          31.6691
          31.6693
          31.6695
          31.6697
          31.6698
          31.6699
          31.6485
          31.6329
          31.6241
          31.6231
          31.6303
          31.6456
          31.6686
          31.6985
          31.7342
          31.7342
          31.7341
          31.7339
          31.7337
          31.7335
          31.7334
          29.6151
          27.4981
          25.38
          23.2598
          21.138
          21.171
          23.7995
          26.4274
          29.055
          31.6844
          31.6846
          31.6849
          31.6852
          31.6854
          31.6856
          31.6857
          31.6699
          31.6593
          31.6542
          31.6551
          31.6623
          31.6756
          31.695
          31.7199
          31.75
          31.7499
          31.7497
          31.7495
          31.7492
          31.749
          31.7488
          29.6335
          27.5173
          25.3963
          23.2695
          21.1386
          21.1716
          23.8081
          26.4415
          29.0714
          31.7008
          31.701
          31.7014
          31.7019
          31.7023
          31.7026
          31.7027
          31.692
          31.6857
          31.6839
          31.6865
          31.6936
          31.7053
          31.7214
          31.7419
          31.7669
          31.7668
          31.7665
          31.7661
          31.7657
          31.7653
          31.7651
          29.658
          27.5458
          25.4219
          23.2851
          21.1397
          21.1722
          23.8224
          26.4634
          29.0936
          31.7181
          31.7184
          31.7189
          31.7196
          31.7203
          31.7208
          31.7209
          31.7153
          31.7134
          31.7148
          31.7191
          31.7262
          31.7361
          31.749
          31.7652
          31.7851
          31.7849
          31.7844
          31.7838
          31.7831
          31.7826
          31.7823
          29.6935
          27.5916
          25.4649
          23.3119
          21.1411
          21.1755
          23.8485
          26.5026
          29.1279
          31.736
          31.7364
          31.7373
          31.7384
          31.7395
          31.7403
          31.7406
          31.7407
          31.7436
          31.7484
          31.7545
          31.7616
          31.7697
          31.7791
          31.7904
          31.8046
          31.8043
          31.8036
          31.8025
          31.8014
          31.8006
          31.8002
          29.7487
          27.6695
          25.541
          23.3595
          21.1458
          21.1725
          23.9054
          26.579
          29.1891
          31.7544
          31.755
          31.7564
          31.7582
          31.7601
          31.7614
          31.7619
          31.769
          31.7777
          31.7866
          31.7948
          31.8019
          31.8078
          31.8131
          31.8186
          31.8258
          31.8254
          31.824
          31.8223
          31.8205
          31.8192
          31.8186
          29.8401
          27.8078
          25.679
          23.4509
          21.1449
          21.2106
          24.0144
          26.7448
          29.3081
          31.773
          31.7738
          31.776
          31.7791
          31.7822
          31.7845
          31.7854
          31.8015
          31.8174
          31.8313
          31.842
          31.849
          31.8525
          31.8527
          31.8509
          31.8492
          31.8483
          31.846
          31.843
          31.84
          31.8379
          31.8371
          29.9963
          28.0564
          25.942
          23.6126
          21.1864
          21.0957
          24.3246
          27.0874
          29.5593
          31.7909
          31.7922
          31.7957
          31.8008
          31.8061
          31.8103
          31.8119
          31.84
          31.8653
          31.8851
          31.8986
          31.9056
          31.9061
          31.9004
          31.8893
          31.8754
          31.8739
          31.8698
          31.8646
          31.8597
          31.8563
          31.855
          30.2581
          28.5112
          26.4278
          23.9982
          21.0755
          21.7348
          24.7812
          27.9334
          30.0431
          31.8073
          31.8093
          31.8148
          31.8229
          31.8323
          31.84
          31.8432
          31.888
          31.9248
          31.9511
          31.9675
          31.9745
          31.972
          31.9596
          31.9368
          31.9063
          31.9033
          31.8959
          31.8868
          31.8788
          31.8734
          31.8714
          30.6647
          29.2873
          27.4689
          24.554
          21.7235
          19.2199
          27.3221
          29.5381
          30.8221
          31.8208
          31.8238
          31.8323
          31.8446
          31.8598
          31.8767
          31.8826
          31.9527
          32.0006
          32.0324
          32.0514
          32.0583
          32.0532
          32.0351
          32.0007
          31.945
          31.9394
          31.9234
          31.9087
          31.8964
          31.8878
          31.8847
          31.2215
          30.4432
          29.3163
          27.2233
          19.204
          31.7792
          31.7942
          31.8056
          31.8167
          31.8271
          31.8346
          31.847
          31.8642
          31.8864
          31.9142
          31.9585
          32.0454
          32.096
          32.1317
          32.1528
          32.1598
          32.1526
          32.1306
          32.0925
          32.0172
          31.9769
          31.9507
          31.9288
          31.9114
          31.8985
          31.8904
          31.8789
          31.8671
          31.8557
          31.8441
          31.8291
          31.7852
          31.7956
          31.8063
          31.8172
          31.8287
          31.8418
          31.8582
          31.8799
          31.9084
          31.9467
          31.998
          32.0536
          32.1041
          32.1393
          32.1604
          32.1674
          32.1604
          32.139
          32.1019
          32.0568
          32.0114
          31.9746
          31.9455
          31.923
          31.9058
          31.8917
          31.8793
          31.8674
          31.8563
          31.8456
          31.835
          31.7918
          31.7984
          31.8073
          31.8182
          31.8308
          31.846
          31.8652
          31.89
          31.9227
          31.9661
          32.0222
          32.0803
          32.1275
          32.1621
          32.183
          32.1901
          32.1834
          32.1631
          32.1307
          32.0884
          32.0384
          31.9915
          31.9567
          31.9304
          31.9101
          31.8938
          31.8801
          31.868
          31.8572
          31.8483
          31.8417
          31.7967
          31.7996
          31.8079
          31.8186
          31.8316
          31.8475
          31.8675
          31.8935
          31.9276
          31.9725
          32.0338
          32.0961
          32.1431
          32.1773
          32.198
          32.2051
          32.1986
          32.179
          32.1476
          32.1056
          32.0505
          31.9976
          31.9606
          31.9329
          31.9117
          31.8946
          31.8804
          31.8682
          31.8577
          31.8495
          31.8466
        </DataArray>
      </PointData>
      <CellData>
      </CellData>
      <Points>
        <DataArray type="Float32" NumberOfComponents="3" format="ascii">
          0.039 0.00195 0.0
          0.0377 0.00195 0.0
          0.0364 0.00195 0.0
          0.0351 0.00195 0.0
          0.0338 0.00195 0.0
          0.0325 0.00195 0.0
          0.0312 0.00195 0.0
          0.0299 0.00195 0.0
          0.0286 0.00195 0.0
          0.0273 0.00195 0.0
          0.026 0.00195 0.0
          0.0247 0.00195 0.0
          0.0234 0.00195 0.0
          0.0221 0.00195 0.0
          0.0208 0.00195 0.0
          0.0195 0.00195 0.0
          0.0182 0.00195 0.0
          0.0169 0.00195 0.0
          0.0156 0.00195 0.0
          0.0143 0.00195 0.0
          0.013 0.00195 0.0
          0.0117 0.00195 0.0
          0.0104 0.00195 0.0
          0.0091 0.00195 0.0
          0.0078 0.00195 0.0
          0.0065 0.00195 0.0
          0.0052 0.00195 0.0
          0.0039 0.00195 0.0
          0.0026 0.00195 0.0
          0.0013 0.00195 0.0
          0 0.00195 0.0
          0.039 0.00065 0.0
          0.0377 0.00065 0.0
          0.0364 0.00065 0.0
          0.0351 0.00065 0.0
          0.0338 0.00065 0.0
          0.0325 0.00065 0.0
          0.0312 0.00065 0.0
          0.0299 0.00065 0.0
          0.0286 0.00065 0.0
          0.0273 0.00065 0.0
          0.026 0.00065 0.0
          0.0247 0.00065 0.0
          0.0234 0.00065 0.0
          0.0221 0.00065 0.0
          0.0208 0.00065 0.0
          0.0195 0.00065 0.0
          0.0182 0.00065 0.0
          0.0169 0.00065 0.0
          0.0156 0.00065 0.0
          0.0143 0.00065 0.0
          0.013 0.00065 0.0
          0.0117 0.00065 0.0
          0.0104 0.00065 0.0
          0.0091 0.00065 0.0
          0.0078 0.00065 0.0
          0.0065 0.00065 0.0
          0.0052 0.00065 0.0
          0.0039 0.00065 0.0
          0.0026 0.00065 0.0
          0.0013 0.00065 0.0
          0 0.00065 0.0
          0.039 -0.00065 0.0
          0.0377 -0.00065 0.0
          0.0364 -0.00065 0.0
          0.0351 -0.00065 0.0
          0.0338 -0.00065 0.0
          0.0325 -0.00065 0.0
          0.0312 -0.00065 0.0
          0.0299 -0.00065 0.0
          0.0286 -0.00065 0.0
          0.0273 -0.00065 0.0
          0.026 -0.00065 0.0
          0.0247 -0.00065 0.0
          0.0234 -0.00065 0.0
          0.0221 -0.00065 0.0
          0.0208 -0.00065 0.0
          0.0195 -0.00065 0.0
          0.0182 -0.00065 0.0
          0.0169 -0.00065 0.0
          0.0156 -0.00065 0.0
          0.0143 -0.00065 0.0
          0.013 -0.00065 0.0
          0.0117 -0.00065 0.0
          0.0104 -0.00065 0.0
          0.0091 -0.00065 0.0
          0.0078 -0.00065 0.0
          0.0065 -0.00065 0.0
          0.0052 -0.00065 0.0
          0.0039 -0.00065 0.0
          0.0026 -0.00065 0.0
          0.0013 -0.00065 0.0
          0 -0.00065 0.0
          0.039 -0.00195 0.0
          0.0377 -0.00195 0.0
          0.0364 -0.00195 0.0
          0.0351 -0.00195 0.0
          0.0338 -0.00195 0.0
          0.0325 -0.00195 0.0
          0.0312 -0.00195 0.0
          0.0299 -0.00195 0.0
          0.0286 -0.00195 0.0
          0.0273 -0.00195 0.0
          0.026 -0.00195 0.0
          0.0247 -0.00195 0.0
          0.0234 -0.00195 0.0
          0.0221 -0.00195 0.0
          0.0208 -0.00195 0.0
          0.0195 -0.00195 0.0
          0.0182 -0.00195 0.0
          0.0169 -0.00195 0.0
          0.0156 -0.00195 0.0
          0.0143 -0.00195 0.0
          0.013 -0.00195 0.0
          0.0117 -0.00195 0.0
          0.0104 -0.00195 0.0
          0.0091 -0.00195 0.0
          0.0078 -0.00195 0.0
          0.0065 -0.00195 0.0
          0.0052 -0.00195 0.0
          0.0039 -0.00195 0.0
          0.0026 -0.00195 0.0
          0.0013 -0.00195 0.0
          0 -0.00195 0.0
          0.039 -0.00325 0.0
          0.0377 -0.00325 0.0
          0.0364 -0.00325 0.0
          0.0351 -0.00325 0.0
          0.0338 -0.00325 0.0
          0.0325 -0.00325 0.0
          0.0312 -0.00325 0.0
          0.0299 -0.00325 0.0
          0.0286 -0.00325 0.0
          0.0273 -0.00325 0.0
          0.026 -0.00325 0.0
          0.0247 -0.00325 0.0
          0.0234 -0.00325 0.0
          0.0221 -0.00325 0.0
          0.0208 -0.00325 0.0
          0.0195 -0.00325 0.0
          0.0182 -0.00325 0.0
          0.0169 -0.00325 0.0
          0.0156 -0.00325 0.0
          0.0143 -0.00325 0.0
          0.013 -0.00325 0.0
          0.0117 -0.00325 0.0
          0.0104 -0.00325 0.0
          0.0091 -0.00325 0.0
          0.0078 -0.00325 0.0
          0.0065 -0.00325 0.0
          0.0052 -0.00325 0.0
          0.0039 -0.00325 0.0
          0.0026 -0.00325 0.0
          0.0013 -0.00325 0.0
          0 -0.00325 0.0
          0.039 -0.00455 0.0
          0.0377 -0.00455 0.0
          0.0364 -0.00455 0.0
          0.0351 -0.00455 0.0
          0.0338 -0.00455 0.0
          0.0325 -0.00455 0.0
          0.0312 -0.00455 0.0
          0.0299 -0.00455 0.0
          0.0286 -0.00455 0.0
          0.0273 -0.00455 0.0
          0.026 -0.00455 0.0
          0.0247 -0.00455 0.0
          0.0234 -0.00455 0.0
          0.0221 -0.00455 0.0
          0.0208 -0.00455 0.0
          0.0195 -0.00455 0.0
          0.0182 -0.00455 0.0
          0.0169 -0.00455 0.0
          0.0156 -0.00455 0.0
          0.0143 -0.00455 0.0
          0.013 -0.00455 0.0
          0.0117 -0.00455 0.0
          0.0104 -0.00455 0.0
          0.0091 -0.00455 0.0
          0.0078 -0.00455 0.0
          0.0065 -0.00455 0.0
          0.0052 -0.00455 0.0
          0.0039 -0.00455 0.0
          0.0026 -0.00455 0.0
          0.0013 -0.00455 0.0
          0 -0.00455 0.0
          0.039 -0.00585 0.0
          0.0377 -0.00585 0.0
          0.0364 -0.00585 0.0
          0.0351 -0.00585 0.0
          0.0338 -0.00585 0.0
          0.0325 -0.00585 0.0
          0.0312 -0.00585 0.0
          0.0299 -0.00585 0.0
          0.0286 -0.00585 0.0
          0.0273 -0.00585 0.0
          0.026 -0.00585 0.0
          0.0247 -0.00585 0.0
          0.0234 -0.00585 0.0
          0.0221 -0.00585 0.0
          0.0208 -0.00585 0.0
          0.0195 -0.00585 0.0
          0.0182 -0.00585 0.0
          0.0169 -0.00585 0.0
          0.0156 -0.00585 0.0
          0.0143 -0.00585 0.0
          0.013 -0.00585 0.0
          0.0117 -0.00585 0.0
          0.0104 -0.00585 0.0
          0.0091 -0.00585 0.0
          0.0078 -0.00585 0.0
          0.0065 -0.00585 0.0
          0.0052 -0.00585 0.0
          0.0039 -0.00585 0.0
          0.0026 -0.00585 0.0
          0.0013 -0.00585 0.0
          0 -0.00585 0.0
          0.039 -0.00715 0.0
          0.0377 -0.00715 0.0
          0.0364 -0.00715 0.0
          0.0351 -0.00715 0.0
          0.0338 -0.00715 0.0
          0.0325 -0.00715 0.0
          0.0312 -0.00715 0.0
          0.0299 -0.00715 0.0
          0.0286 -0.00715 0.0
          0.0273 -0.00715 0.0
          0.026 -0.00715 0.0
          0.0247 -0.00715 0.0
          0.0234 -0.00715 0.0
          0.0221 -0.00715 0.0
          0.0208 -0.00715 0.0
          0.0195 -0.00715 0.0
          0.0182 -0.00715 0.0
          0.0169 -0.00715 0.0
          0.0156 -0.00715 0.0
          0.0143 -0.00715 0.0
          0.013 -0.00715 0.0
          0.0117 -0.00715 0.0
          0.0104 -0.00715 0.0
          0.0091 -0.00715 0.0
          0.0078 -0.00715 0.0
          0.0065 -0.00715 0.0
          0.0052 -0.00715 0.0
          0.0039 -0.00715 0.0
          0.0026 -0.00715 0.0
          0.0013 -0.00715 0.0
          0 -0.00715 0.0
          0.039 -0.00845 0.0
          0.0377 -0.00845 0.0
          0.0364 -0.00845 0.0
          0.0351 -0.00845 0.0
          0.0338 -0.00845 0.0
          0.0325 -0.00845 0.0
          0.0312 -0.00845 0.0
          0.0299 -0.00845 0.0
          0.0286 -0.00845 0.0
          0.0273 -0.00845 0.0
          0.026 -0.00845 0.0
          0.0247 -0.00845 0.0
          0.0234 -0.00845 0.0
          0.0221 -0.00845 0.0
          0.0208 -0.00845 0.0
          0.0195 -0.00845 0.0
          0.0182 -0.00845 0.0
          0.0169 -0.00845 0.0
          0.0156 -0.00845 0.0
          0.0143 -0.00845 0.0
          0.013 -0.00845 0.0
          0.0117 -0.00845 0.0
          0.0104 -0.00845 0.0
          0.0091 -0.00845 0.0
          0.0078 -0.00845 0.0
          0.0065 -0.00845 0.0
          0.0052 -0.00845 0.0
          0.0039 -0.00845 0.0
          0.0026 -0.00845 0.0
          0.0013 -0.00845 0.0
          0 -0.00845 0.0
          0.039 -0.00975 0.0
          0.0377 -0.00975 0.0
          0.0364 -0.00975 0.0
          0.0351 -0.00975 0.0
          0.0338 -0.00975 0.0
          0.0325 -0.00975 0.0
          0.0312 -0.00975 0.0
          0.0299 -0.00975 0.0
          0.0286 -0.00975 0.0
          0.0273 -0.00975 0.0
          0.026 -0.00975 0.0
          0.0247 -0.00975 0.0
          0.0234 -0.00975 0.0
          0.0221 -0.00975 0.0
          0.0208 -0.00975 0.0
          0.0195 -0.00975 0.0
          0.0182 -0.00975 0.0
          0.0169 -0.00975 0.0
          0.0156 -0.00975 0.0
          0.0143 -0.00975 0.0
          0.013 -0.00975 0.0
          0.0117 -0.00975 0.0
          0.0104 -0.00975 0.0
          0.0091 -0.00975 0.0
          0.0078 -0.00975 0.0
          0.0065 -0.00975 0.0
          0.0052 -0.00975 0.0
          0.0039 -0.00975 0.0
          0.0026 -0.00975 0.0
          0.0013 -0.00975 0.0
          0 -0.00975 0.0
          0.039 -0.01105 0.0
          0.0377 -0.01105 0.0
          0.0364 -0.01105 0.0
          0.0351 -0.01105 0.0
          0.0338 -0.01105 0.0
          0.0325 -0.01105 0.0
          0.0312 -0.01105 0.0
          0.0299 -0.01105 0.0
          0.0286 -0.01105 0.0
          0.0273 -0.01105 0.0
          0.026 -0.01105 0.0
          0.0247 -0.01105 0.0
          0.0234 -0.01105 0.0
          0.0221 -0.01105 0.0
          0.0208 -0.01105 0.0
          0.0195 -0.01105 0.0
          0.0182 -0.01105 0.0
          0.0169 -0.01105 0.0
          0.0156 -0.01105 0.0
          0.0143 -0.01105 0.0
          0.013 -0.01105 0.0
          0.0117 -0.01105 0.0
          0.0104 -0.01105 0.0
          0.0091 -0.01105 0.0
          0.0078 -0.01105 0.0
          0.0065 -0.01105 0.0
          0.0052 -0.01105 0.0
          0.0039 -0.01105 0.0
          0.0026 -0.01105 0.0
          0.0013 -0.01105 0.0
          0 -0.01105 0.0
          0.039 -0.01235 0.0
          0.0377 -0.01235 0.0
          0.0364 -0.01235 0.0
          0.0351 -0.01235 0.0
          0.0338 -0.01235 0.0
          0.0325 -0.01235 0.0
          0.0312 -0.01235 0.0
          0.0299 -0.01235 0.0
          0.0286 -0.01235 0.0
          0.0273 -0.01235 0.0
          0.026 -0.01235 0.0
          0.0247 -0.01235 0.0
          0.0234 -0.01235 0.0
          0.0221 -0.01235 0.0
          0.0208 -0.01235 0.0
          0.0195 -0.01235 0.0
          0.0182 -0.01235 0.0
          0.0169 -0.01235 0.0
          0.0156 -0.01235 0.0
          0.0143 -0.01235 0.0
          0.013 -0.01235 0.0
          0.0117 -0.01235 0.0
          0.0104 -0.01235 0.0
          0.0091 -0.01235 0.0
          0.0078 -0.01235 0.0
          0.0065 -0.01235 0.0
          0.0052 -0.01235 0.0
          0.0039 -0.01235 0.0
          0.0026 -0.01235 0.0
          0.0013 -0.01235 0.0
          0 -0.01235 0.0
          0.039 -0.01365 0.0
          0.0377 -0.01365 0.0
          0.0364 -0.01365 0.0
          0.0351 -0.01365 0.0
          0.0338 -0.01365 0.0
          0.0325 -0.01365 0.0
          0.0312 -0.01365 0.0
          0.0299 -0.01365 0.0
          0.0286 -0.01365 0.0
          0.0273 -0.01365 0.0
          0.026 -0.01365 0.0
          0.0247 -0.01365 0.0
          0.0234 -0.01365 0.0
          0.0221 -0.01365 0.0
          0.0208 -0.01365 0.0
          0.0195 -0.01365 0.0
          0.0182 -0.01365 0.0
          0.0169 -0.01365 0.0
          0.0156 -0.01365 0.0
          0.0143 -0.01365 0.0
          0.013 -0.01365 0.0
          0.0117 -0.01365 0.0
          0.0104 -0.01365 0.0
          0.0091 -0.01365 0.0
          0.0078 -0.01365 0.0
          0.0065 -0.01365 0.0
          0.0052 -0.01365 0.0
          0.0039 -0.01365 0.0
          0.0026 -0.01365 0.0
          0.0013 -0.01365 0.0
          0 -0.01365 0.0
          0.039 -0.01495 0.0
          0.0377 -0.01495 0.0
          0.0364 -0.01495 0.0
          0.0351 -0.01495 0.0
          0.0338 -0.01495 0.0
          0.0325 -0.01495 0.0
          0.0312 -0.01495 0.0
          0.0299 -0.01495 0.0
          0.0286 -0.01495 0.0
          0.0273 -0.01495 0.0
          0.026 -0.01495 0.0
          0.0247 -0.01495 0.0
          0.0234 -0.01495 0.0
          0.0221 -0.01495 0.0