<?xml version="1.0"?>
<VTKFile type="UnstructuredGrid" version="0.1" byte_order="LittleEndian">
  <UnstructuredGrid>
    <Piece NumberOfPoints="961" NumberOfCells="900">
      <PointData Scalars="Temperature">
        <DataArray type="Float32" Name="Temperature" format="ascii">
          21.0008
          21.0127
          21.0251
          21.0375
          21.048
          21.0554
          21.0591
          21.0604
          21.0598
          21.0575
          21.0531
          21.0473
          21.0414
          21.0371
          21.0349
          21.035
          21.0374
          21.042
          21.0481
          21.0541
          21.0587
          21.0611
          21.0617
          21.0605
          21.0571
          21.0503
          21.0407
          21.0297
          21.0191
          21.0094
          21.0006
          21.0123
          21.2049
          21.4115
          21.6193
          21.8005
          21.9185
          21.9764
          21.9915
          21.9854
          21.9493
          21.8771
          21.7741
          21.6737
          21.5999
          21.5657
          21.5675
          21.6053
          21.6831
          21.7875
          21.8942
          21.9688
          22.0062
          22.0131
          21.9994
          21.9454
          21.836
          21.67
          21.4845
          21.3072
          21.1523
          21.0092
          21.023
          21.382
          21.7729
          22.2406
          22.6219
          22.8683
          22.9248
          22.9394
          22.9335
          22.8981
          22.7358
          22.5074
          22.2617
          22.125
          22.0634
          22.0667
          22.135
          22.2793
          22.5343
          22.7703
          22.9376
          22.9742
          22.981
          22.9676
          22.9149
          22.6835
          22.3313
          21.9081
          21.573
          21.2838
          21.0171
          21.0318
          21.5284
          22.0738
          22.7277
          23.9053
          23.9054
          23.9055
          23.9055
          23.9055
          23.9055
          23.9054
          23.0813
          22.7599
          22.5806
          22.5023
          22.5068
          22.5945
          22.7843
          23.1186
          23.9665
          23.9666
          23.9666
          23.9666
          23.9666
          23.9665
          23.9664
          22.8486
          22.2614
          21.795
          21.3949
          21.0238
          21.0382
          21.6338
          22.2753
          23.0369
          23.906
          23.9061
          23.9062
          23.9062
          23.9062
          23.9062
          23.9061
          23.4585
          23.129
          22.9476
          22.8664
          22.8719
          22.9642
          23.158
          23.5025
          23.9672
          23.9673
          23.9673
          23.9673
          23.9673
          23.9672
          23.9672
          23.179
          22.504
          21.9602
          21.4799
          21.029
          21.0423
          21.6979
          22.3865
          23.1261
          23.9079
          23.9079
          23.908
          23.908
          23.908
          23.908
          23.908
          23.6155
          23.379
          23.2238
          23.1523
          23.1583
          23.2423
          23.4106
          23.6614
          23.9691
          23.9691
          23.9691
          23.9691
          23.9691
          23.969
          23.969
          23.2839
          22.6457
          22.0682
          21.5386
          21.0326
          21.0445
          21.7318
          22.4356
          23.1635
          23.9109
          23.9109
          23.9109
          23.911
          23.911
          23.911
          23.911
          23.7092
          23.5404
          23.4235
          23.3672
          23.3736
          23.4429
          23.5732
          23.756
          23.9721
          23.9721
          23.9721
          23.9721
          23.972
          23.972
          23.972
          23.3326
          22.7164
          22.132
          21.5755
          21.035
          21.0456
          21.748
          22.4587
          23.1816
          23.915
          23.915
          23.915
          23.9151
          23.9151
          23.9151
          23.9151
          23.7718
          23.6509
          23.5657
          23.5247
          23.5313
          23.5856
          23.6843
          23.819
          23.9762
          23.9762
          23.9762
          23.9762
          23.9762
          23.9761
          23.9761
          23.3584
          22.7541
          22.1676
          21.5971
          21.0364
          21.0461
          21.7562
          22.4707
          23.1921
          23.9202
          23.9203
          23.9203
          23.9203
          23.9204
          23.9204
          23.9204
          23.8166
          23.7293
          23.6679
          23.639
          23.6457
          23.688
          23.7629
          23.8639
          23.9815
          23.9815
          23.9815
          23.9814
          23.9814
          23.9814
          23.9814
          23.374
          22.7756
          22.1878
          21.6096
          21.0372
          21.0464
          21.7609
          22.4781
          23.1998
          23.9267
          23.9267
          23.9267
          23.9268
          23.9268
          23.9268
          23.9268
          23.8502
          23.7865
          23.7423
          23.7224
          23.7291
          23.7626
          23.8203
          23.8976
          23.9879
          23.9879
          23.9879
          23.9879
          23.9878
          23.9878
          23.9878
          23.3851
          22.789
          22.2
          21.617
          21.0376
          21.0467
          21.7642
          22.4838
          23.2067
          23.9342
          23.9343
          23.9343
          23.9343
          23.9343
          23.9343
          23.9343
          23.8768
          23.8296
          23.7976
          23.7841
          23.7909
          23.818
          23.8635
          23.9242
          23.9955
          23.9955
          23.9955
          23.9954
          23.9954
          23.9954
          23.9954
          23.3943
          22.7986
          22.2081
          21.6218
          21.0379
          21.0468
          21.7671
          22.489
          23.2139
          23.9429
          23.943
          23.943
          23.943
          23.9431
          23.9431
          23.9431
          23.8988
          23.8634
          23.84
          23.8311
          23.8379
          23.8604
          23.8973
          23.9463
          24.0042
          24.0042
          24.0042
          24.0042
          24.0041
          24.0041
          24.0041
          23.4029
          22.8065
          22.2143
          21.6254
          21.0382
          21.047
          21.7699
          22.4944
          23.2216
          23.9528
          23.9528
          23.9529
          23.9529
          23.9529
          23.9529
          23.9529
          23.9181
          23.8909
          23.8737
          23.868
          23.8748
          23.8941
          23.9249
          23.9656
          24.0141
          24.0141
          24.014
          24.014
          24.014
          24.014
          24.0139
          23.4117
          22.8139
          22.2198
          21.6284
          21.0384
          21.0472
          21.7729
          22.5001
          23.23
          23.9638
          23.9638
          23.9639
          23.9639
          23.9639
          23.9639
          23.964
          23.9358
          23.9146
          23.9018
          23.8984
          23.9052
          23.9221
          23.9486
          23.9834
          24.0251
          24.0251
          24.0251
          24.025
          24.025
          24.025
          24.0249
          23.421
          22.8214
          22.2251
          21.6312
          21.0385
          21.0474
          21.7762
          22.5064
          23.2392
          23.9759
          23.976
          23.976
          23.9761
          23.9761
          23.9761
          23.9761
          23.9529
          23.936
          23.9264
          23.9248
          23.9316
          23.9468
          23.97
          24.0005
          24.0373
          24.0373
          24.0372
          24.0372
          24.0372
          24.0371
          24.0371
          23.4311
          22.8293
          22.2307
          21.6342
          21.0387
          21.0476
          21.7797
          22.5132
          23.2492
          23.9892
          23.9892
          23.9893
          23.9894
          23.9894
          23.9894
          23.9895
          23.97
          23.9563
          23.9491
          23.9488
          23.9556
          23.9695
          23.9903
          24.0175
          24.0506
          24.0506
          24.0506
          24.0505
          24.0505
          24.0504
          24.0504
          23.4421
          22.838
          22.2367
          21.6373
          21.0389
          21.0478
          21.7836
          22.5206
          23.2602
          24.0036
          24.0036
          24.0037
          24.0038
          24.0039
          24.0039
          24.004
          23.9875
          23.9765
          23.9712
          23.9719
          23.9787
          23.9916
          24.0104
          24.035
          24.0651
          24.0651
          24.0651
          24.065
          24.0649
          24.0648
          24.0648
          23.4542
          22.8476
          22.2435
          21.6409
          21.0391
          21.0481
          21.7879
          22.5288
          23.2721
          24.0191
          24.0191
          24.0193
          24.0194
          24.0195
          24.0196
          24.0197
          24.0058
          23.9971
          23.9936
          23.9952
          24.002
          24.014
          24.0311
          24.0534
          24.0808
          24.0808
          24.0807
          24.0806
          24.0805
          24.0803
          24.0803
          23.4676
          22.8585
          22.2514
          21.6452
          21.0394
          21.0484
          21.7928
          22.5379
          23.2851
          24.0357
          24.0357
          24.0359
          24.0361
          24.0364
          24.0365
          24.0366
          24.0254
          24.019
          24.0171
          24.0196
          24.0264
          24.0375
          24.053
          24.0729
          24.0977
          24.0977
          24.0975
          24.0973
          24.0971
          24.097
          24.0969
          23.4827
          22.8714
          22.261
          21.6506
          21.0397
          21.0488
          21.7986
          22.5485
          23.2995
          24.0533
          24.0534
          24.0537
          24.054
          24.0544
          24.0546
          24.0547
          24.0465
          24.0426
          24.0426
          24.0461
          24.0529
          24.063
          24.0766
          24.0941
          24.1159
          24.1158
          24.1156
          24.1152
          24.1149
          24.1146
          24.1145
          23.5001
          22.8875
          22.2737
          21.6578
          21.0402
          21.0492
          21.8062
          22.5617
          23.3161
          24.0719
          24.072
          24.0725
          24.0731
          24.0736
          24.0741
          24.0742
          24.0696
          24.0688
          24.071
          24.0757
          24.0824
          24.0914
          24.1027
          24.1171
          24.1354
          24.1353
          24.1348
          24.1343
          24.1337
          24.1333
          24.1331
          23.5214
          22.909
          22.2918
          21.6685
          21.0408
          21.0504
          21.8175
          22.5802
          23.3367
          24.0913
          24.0915
          24.0923
          24.0932
          24.0942
          24.0949
          24.0952
          24.0952
          24.0983
          24.1034
          24.1095
          24.1163
          24.1237
          24.1323
          24.1428
          24.1564
          24.1561
          24.1554
          24.1545
          24.1535
          24.1528
          24.1525
          23.5489
          22.9405
          22.32
          21.6855
          21.0424
          21.0497
          21.8379
          22.6099
          23.3655
          24.1113
          24.1117
          24.1129
          24.1145
          24.1162
          24.1174
          24.1179
          24.1242
          24.1325
          24.1411
          24.1491
          24.1559
          24.1615
          24.1664
          24.1717
          24.1791
          24.1786
          24.1774
          24.1758
          24.1742
          24.173
          24.1726
          23.5876
          22.9902
          22.3668
          21.7157
          21.0423
          21.0612
          21.8738
          22.666
          23.4115
          24.1315
          24.1322
          24.1342
          24.1369
          24.1398
          24.142
          24.1428
          24.1576
          24.1727
          24.1861
          24.1964
          24.2032
          24.2064
          24.2066
          24.205
          24.2039
          24.2031
          24.201
          24.1982
          24.1955
          24.1936
          24.1929
          23.6458
          23.073
          22.451
          21.7668
          21.0548
          21.0275
          21.969
          22.7743
          23.4964
          24.1515
          24.1526
          24.1557
          24.1603
          24.1652
          24.1691
          24.1706
          24.1973
          24.2215
          24.2407
          24.2538
          24.2605
          24.2609
          24.2552
          24.2446
          24.2317
          24.2302
          24.2264
          24.2216
          24.2171
          24.214
          24.2129
          23.7355
          23.2174
          22.6018
          21.885
          21.0219
          21.2164
          22.1075
          23.0312
          23.6497
          24.1703
          24.172
          24.1768
          24.1841
          24.1928
          24.2001
          24.2032
          24.2464
          24.2822
          24.3079
          24.3239
          24.3306
          24.328
          24.3158
          24.2935
          24.264
          24.2611
          24.254
          24.2455
          24.2383
          24.2334
          24.2317
          23.8683
          23.458
          22.9189
          22.0541
          21.2157
          20.474
          22.8618
          23.5128
          23.8903
          24.1868
          24.1892
          24.1963
          24.2074
          24.2217
          24.238
          24.2437
          24.3125
          24.3596
          24.3908
          24.4094
          24.4162
          24.411
          24.393
          24.359
          24.3039
          24.2986
          24.2831
          24.2692
          24.258
          24.2507
          24.2482
          24.0461
          23.8131
          23.4777
          22.8551
          20.463
          24.1831
          24.1878
          24.1923
          24.1969
          24.1992
          24.2029
          24.2131
          24.2285
          24.2495
          24.2765
          24.3203
          24.4067
          24.4569
          24.4922
          24.5131
          24.5199
          24.5126
          24.4906
          24.4526
          24.3772
          24.3372
          24.3117
          24.2909
          24.2752
          24.2644
          24.26
          24.2564
          24.2507
          24.2454
          24.2408
          24.2359
          24.1848
          24.1883
          24.1926
          24.1975
          24.2037
          24.2125
          24.2259
          24.2454
          24.2723
          24.3095
          24.36
          24.415
          24.465
          24.4999
          24.5207
          24.5275
          24.5204
          24.4991
          24.4621
          24.4172
          24.3724
          24.3365
          24.3089
          24.2884
          24.2741
          24.2642
          24.257
          24.2509
          24.2456
          24.2412
          24.2377
          24.1869
          24.1893
          24.1933
          24.1989
          24.2068
          24.2179
          24.2339
          24.2563
          24.2872
          24.3293
          24.3844
          24.4418
          24.4885
          24.5227
          24.5433
          24.5501
          24.5434
          24.5232
          24.491
          24.4491
          24.3998
          24.3541
          24.3208
          24.2968
          24.2797
          24.2673
          24.2583
          24.2514
          24.246
          24.2421
          24.2397
          24.1883
          24.1897
          24.1936
          24.1995
          24.2079
          24.2198
          24.2366
          24.26
          24.2922
          24.3358
          24.396
          24.4576
          24.5041
          24.5378
          24.5583
          24.5652
          24.5586
          24.5391
          24.5079
          24.4664
          24.4121
          24.3604
          24.325
          24.2997
          24.2816
          24.2684
          24.2588
          24.2516
          24.2462
          24.2424
          24.2411
        </DataArray>
      </PointData>
      <CellData>
      </CellData>
      <Points>
        <DataArray type="Float32" NumberOfComponents="3" format="ascii">
          0.039 0.00195 0.0
          0.0377 0.00195 0.0
          0.0364 0.00195 0.0
          0.0351 0.00195 0.0
          0.0338 0.00195 0.0
          0.0325 0.00195 0.0
          0.0312 0.00195 0.0
          0.0299 0.00195 0.0
          0.0286 0.00195 0.0
          0.0273 0.00195 0.0
          0.026 0.00195 0.0
          0.0247 0.00195 0.0
          0.0234 0.00195 0.0
          0.0221 0.00195 0.0
          0.0208 0.00195 0.0
          0.0195 0.00195 0.0
          0.0182 0.00195 0.0
          0.0169 0.00195 0.0
          0.0156 0.00195 0.0
          0.0143 0.00195 0.0
          0.013 0.00195 0.0
          0.0117 0.00195 0.0
          0.0104 0.00195 0.0
          0.0091 0.00195 0.0
          0.0078 0.00195 0.0
          0.0065 0.00195 0.0
          0.0052 0.00195 0.0
          0.0039 0.00195 0.0
          0.0026 0.00195 0.0
          0.0013 0.00195 0.0
          0 0.00195 0.0
          0.039 0.00065 0.0
          0.0377 0.00065 0.0
          0.0364 0.00065 0.0
          0.0351 0.00065 0.0
          0.0338 0.00065 0.0
          0.0325 0.00065 0.0
          0.0312 0.00065 0.0
          0.0299 0.00065 0.0
          0.0286 0.00065 0.0
          0.0273 0.00065 0.0
          0.026 0.00065 0.0
          0.0247 0.00065 0.0
          0.0234 0.00065 0.0
          0.0221 0.00065 0.0
          0.0208 0.00065 0.0
          0.0195 0.00065 0.0
          0.0182 0.00065 0.0
          0.0169 0.00065 0.0
          0.0156 0.00065 0.0
          0.0143 0.00065 0.0
          0.013 0.00065 0.0
          0.0117 0.00065 0.0
          0.0104 0.00065 0.0
          0.0091 0.00065 0.0
          0.0078 0.00065 0.0
          0.0065 0.00065 0.0
          0.0052 0.00065 0.0
          0.0039 0.00065 0.0
          0.0026 0.00065 0.0
          0.0013 0.00065 0.0
          0 0.00065 0.0
          0.039 -0.00065 0.0
          0.0377 -0.00065 0.0
          0.0364 -0.00065 0.0
          0.0351 -0.00065 0.0
          0.0338 -0.00065 0.0
          0.0325 -0.00065 0.0
          0.0312 -0.00065 0.0
          0.0299 -0.00065 0.0
          0.0286 -0.00065 0.0
          0.0273 -0.00065 0.0
          0.026 -0.00065 0.0
          0.0247 -0.00065 0.0
          0.0234 -0.00065 0.0
          0.0221 -0.00065 0.0
          0.0208 -0.00065 0.0
          0.0195 -0.00065 0.0
          0.0182 -0.00065 0.0
          0.0169 -0.00065 0.0
          0.0156 -0.00065 0.0
          0.0143 -0.00065 0.0
          0.013 -0.00065 0.0
          0.0117 -0.00065 0.0
          0.0104 -0.00065 0.0
          0.0091 -0.00065 0.0
          0.0078 -0.00065 0.0
          0.0065 -0.00065 0.0
          0.0052 -0.00065 0.0
          0.0039 -0.00065 0.0
          0.0026 -0.00065 0.0
          0.0013 -0.00065 0.0
          0 -0.00065 0.0
          0.039 -0.00195 0.0
          0.0377 -0.00195 0.0
          0.0364 -0.00195 0.0
          0.0351 -0.00195 0.0
          0.0338 -0.00195 0.0
          0.0325 -0.00195 0.0
          0.0312 -0.00195 0.0
          0.0299 -0.00195 0.0
          0.0286 -0.00195 0.0
          0.0273 -0.00195 0.0
          0.026 -0.00195 0.0
          0.0247 -0.00195 0.0
          0.0234 -0.00195 0.0
          0.0221 -0.00195 0.0
          0.0208 -0.00195 0.0
          0.0195 -0.00195 0.0
          0.0182 -0.00195 0.0
          0.0169 -0.00195 0.0
          0.0156 -0.00195 0.0
          0.0143 -0.00195 0.0
          0.013 -0.00195 0.0
          0.0117 -0.00195 0.0
          0.0104 -0.00195 0.0
          0.0091 -0.00195 0.0
          0.0078 -0.00195 0.0
          0.0065 -0.00195 0.0
          0.0052 -0.00195 0.0
          0.0039 -0.00195 0.0
          0.0026 -0.00195 0.0
          0.0013 -0.00195 0.0
          0 -0.00195 0.0
          0.039 -0.00325 0.0
          0.0377 -0.00325 0.0
          0.0364 -0.00325 0.0
          0.0351 -0.00325 0.0
          0.0338 -0.00325 0.0
          0.0325 -0.00325 0.0
          0.0312 -0.00325 0.0
          0.0299 -0.00325 0.0
          0.0286 -0.00325 0.0
          0.0273 -0.00325 0.0
          0.026 -0.00325 0.0
          0.0247 -0.00325 0.0
          0.0234 -0.00325 0.0
          0.0221 -0.00325 0.0
          0.0208 -0.00325 0.0
          0.0195 -0.00325 0.0
          0.0182 -0.00325 0.0
          0.0169 -0.00325 0.0
          0.0156 -0.00325 0.0
          0.0143 -0.00325 0.0
          0.013 -0.00325 0.0
          0.0117 -0.00325 0.0
          0.0104 -0.00325 0.0
          0.0091 -0.00325 0.0
          0.0078 -0.00325 0.0
          0.0065 -0.00325 0.0
          0.0052 -0.00325 0.0
          0.0039 -0.00325 0.0
          0.0026 -0.00325 0.0
          0.0013 -0.00325 0.0
          0 -0.00325 0.0
          0.039 -0.00455 0.0
          0.0377 -0.00455 0.0
          0.0364 -0.00455 0.0
          0.0351 -0.00455 0.0
          0.0338 -0.00455 0.0
          0.0325 -0.00455 0.0
          0.0312 -0.00455 0.0
          0.0299 -0.00455 0.0
          0.0286 -0.00455 0.0
          0.0273 -0.00455 0.0
          0.026 -0.00455 0.0
          0.0247 -0.00455 0.0
          0.0234 -0.00455 0.0
          0.0221 -0.00455 0.0
          0.0208 -0.00455 0.0
          0.0195 -0.00455 0.0
          0.0182 -0.00455 0.0
          0.0169 -0.00455 0.0
          0.0156 -0.00455 0.0
          0.0143 -0.00455 0.0
          0.013 -0.00455 0.0
          0.0117 -0.00455 0.0
          0.0104 -0.00455 0.0
          0.0091 -0.00455 0.0
          0.0078 -0.00455 0.0
          0.0065 -0.00455 0.0
          0.0052 -0.00455 0.0
          0.0039 -0.00455 0.0
          0.0026 -0.00455 0.0
          0.0013 -0.00455 0.0
          0 -0.00455 0.0
          0.039 -0.00585 0.0
          0.0377 -0.00585 0.0
          0.0364 -0.00585 0.0
          0.0351 -0.00585 0.0
          0.0338 -0.00585 0.0
          0.0325 -0.00585 0.0
          0.0312 -0.00585 0.0
          0.0299 -0.00585 0.0
          0.0286 -0.00585 0.0
          0.0273 -0.00585 0.0
          0.026 -0.00585 0.0
          0.0247 -0.00585 0.0
          0.0234 -0.00585 0.0
          0.0221 -0.00585 0.0
          0.0208 -0.00585 0.0
          0.0195 -0.00585 0.0
          0.0182 -0.00585 0.0
          0.0169 -0.00585 0.0
          0.0156 -0.00585 0.0
          0.0143 -0.00585 0.0
          0.013 -0.00585 0.0
          0.0117 -0.00585 0.0
          0.0104 -0.00585 0.0
          0.0091 -0.00585 0.0
          0.0078 -0.00585 0.0
          0.0065 -0.00585 0.0
          0.0052 -0.00585 0.0
          0.0039 -0.00585 0.0
          0.0026 -0.00585 0.0
          0.0013 -0.00585 0.0
          0 -0.00585 0.0
          0.039 -0.00715 0.0
          0.0377 -0.00715 0.0
          0.0364 -0.00715 0.0
          0.0351 -0.00715 0.0
          0.0338 -0.00715 0.0
          0.0325 -0.00715 0.0
          0.0312 -0.00715 0.0
          0.0299 -0.00715 0.0
          0.0286 -0.00715 0.0
          0.0273 -0.00715 0.0
          0.026 -0.00715 0.0
          0.0247 -0.00715 0.0
          0.0234 -0.00715 0.0
          0.0221 -0.00715 0.0
          0.0208 -0.00715 0.0
          0.0195 -0.00715 0.0
          0.0182 -0.00715 0.0
          0.0169 -0.00715 0.0
          0.0156 -0.00715 0.0
          0.0143 -0.00715 0.0
          0.013 -0.00715 0.0
          0.0117 -0.00715 0.0
          0.0104 -0.00715 0.0
          0.0091 -0.00715 0.0
          0.0078 -0.00715 0.0
          0.0065 -0.00715 0.0
          0.0052 -0.00715 0.0
          0.0039 -0.00715 0.0
          0.0026 -0.00715 0.0
          0.0013 -0.00715 0.0
          0 -0.00715 0.0
          0.039 -0.00845 0.0
          0.0377 -0.00845 0.0
          0.0364 -0.00845 0.0
          0.0351 -0.00845 0.0
          0.0338 -0.00845 0.0
          0.0325 -0.00845 0.0
          0.0312 -0.00845 0.0
          0.0299 -0.00845 0.0
          0.0286 -0.00845 0.0
          0.0273 -0.00845 0.0
          0.026 -0.00845 0.0
          0.0247 -0.00845 0.0
          0.0234 -0.00845 0.0
          0.0221 -0.00845 0.0
          0.0208 -0.00845 0.0
          0.0195 -0.00845 0.0
          0.0182 -0.00845 0.0
          0.0169 -0.00845 0.0
          0.0156 -0.00845 0.0
          0.0143 -0.00845 0.0
          0.013 -0.00845 0.0
          0.0117 -0.00845 0.0
          0.0104 -0.00845 0.0
          0.0091 -0.00845 0.0
          0.0078 -0.00845 0.0
          0.0065 -0.00845 0.0
          0.0052 -0.00845 0.0
          0.0039 -0.00845 0.0
          0.0026 -0.00845 0.0
          0.0013 -0.00845 0.0
          0 -0.00845 0.0
          0.039 -0.00975 0.0
          0.0377 -0.00975 0.0
          0.0364 -0.00975 0.0
          0.0351 -0.00975 0.0
          0.0338 -0.00975 0.0
          0.0325 -0.00975 0.0
          0.0312 -0.00975 0.0
          0.0299 -0.00975 0.0
          0.0286 -0.00975 0.0
          0.0273 -0.00975 0.0
          0.026 -0.00975 0.0
          0.0247 -0.00975 0.0
          0.0234 -0.00975 0.0
          0.0221 -0.00975 0.0
          0.0208 -0.00975 0.0
          0.0195 -0.00975 0.0
          0.0182 -0.00975 0.0
          0.0169 -0.00975 0.0
          0.0156 -0.00975 0.0
          0.0143 -0.00975 0.0
          0.013 -0.00975 0.0
          0.0117 -0.00975 0.0
          0.0104 -0.00975 0.0
          0.0091 -0.00975 0.0
          0.0078 -0.00975 0.0
          0.0065 -0.00975 0.0
          0.0052 -0.00975 0.0
          0.0039 -0.00975 0.0
          0.0026 -0.00975 0.0
          0.0013 -0.00975 0.0
          0 -0.00975 0.0
          0.039 -0.01105 0.0
          0.0377 -0.01105 0.0
          0.0364 -0.01105 0.0
          0.0351 -0.01105 0.0
          0.0338 -0.01105 0.0
          0.0325 -0.01105 0.0
          0.0312 -0.01105 0.0
          0.0299 -0.01105 0.0
          0.0286 -0.01105 0.0
          0.0273 -0.01105 0.0
          0.026 -0.01105 0.0
          0.0247 -0.01105 0.0
          0.0234 -0.01105 0.0
          0.0221 -0.01105 0.0
          0.0208 -0.01105 0.0
          0.0195 -0.01105 0.0
          0.0182 -0.01105 0.0
          0.0169 -0.01105 0.0
          0.0156 -0.01105 0.0
          0.0143 -0.01105 0.0
          0.013 -0.01105 0.0
          0.0117 -0.01105 0.0
          0.0104 -0.01105 0.0
          0.0091 -0.01105 0.0
          0.0078 -0.01105 0.0
          0.0065 -0.01105 0.0
          0.0052 -0.01105 0.0
          0.0039 -0.01105 0.0
          0.0026 -0.01105 0.0
          0.0013 -0.01105 0.0
          0 -0.01105 0.0
          0.039 -0.01235 0.0
          0.0377 -0.01235 0.0
          0.0364 -0.01235 0.0
          0.0351 -0.01235 0.0
          0.0338 -0.01235 0.0
          0.0325 -0.01235 0.0
          0.0312 -0.01235 0.0
          0.0299 -0.01235 0.0
          0.0286 -0.01235 0.0
          0.0273 -0.01235 0.0
          0.026 -0.01235 0.0
          0.0247 -0.01235 0.0
          0.0234 -0.01235 0.0
          0.0221 -0.01235 0.0
          0.0208 -0.01235 0.0
          0.0195 -0.01235 0.0
          0.0182 -0.01235 0.0
          0.0169 -0.01235 0.0
          0.0156 -0.01235 0.0
          0.0143 -0.01235 0.0
          0.013 -0.01235 0.0
          0.0117 -0.01235 0.0
          0.0104 -0.01235 0.0
          0.0091 -0.01235 0.0
          0.0078 -0.01235 0.0
          0.0065 -0.01235 0.0
          0.0052 -0.01235 0.0
          0.0039 -0.01235 0.0
          0.0026 -0.01235 0.0
          0.0013 -0.01235 0.0
          0 -0.01235 0.0
          0.039 -0.01365 0.0
          0.0377 -0.01365 0.0
          0.0364 -0.01365 0.0
          0.0351 -0.01365 0.0
          0.0338 -0.01365 0.0
          0.0325 -0.01365 0.0
          0.0312 -0.01365 0.0
          0.0299 -0.01365 0.0
          0.0286 -0.01365 0.0
          0.0273 -0.01365 0.0
          0.026 -0.01365 0.0
          0.0247 -0.01365 0.0
          0.0234 -0.01365 0.0
          0.0221 -0.01365 0.0
          0.0208 -0.01365 0.0
          0.0195 -0.01365 0.0
          0.0182 -0.01365 0.0
          0.0169 -0.01365 0.0
          0.0156 -0.01365 0.0
          0.0143 -0.01365 0.0
          0.013 -0.01365 0.0
          0.0117 -0.01365 0.0
          0.0104 -0.01365 0.0
          0.0091 -0.01365 0.0
          0.0078 -0.01365 0.0
          0.0065 -0.01365 0.0
          0.0052 -0.01365 0.0
          0.0039 -0.01365 0.0
          0.0026 -0.01365 0.0
          0.0013 -0.01365 0.0
          0 -0.01365 0.0
          0.039 -0.01495 0.0
          0.0377 -0.01495 0.0
          0.0364 -0.01495 0.0
          0.0351 -0.01495 0.0
          0.0338 -0.01495 0.0
          0.0325 -0.01495 0.0
          0.0312 -0.01495 0.0
          0.0299 -0.01495 0.0
          0.0286 -0.01495 0.0
          0.0273 -0.01495 0.0
          0.026 -0.01495 0.0
          0.0247 -0.01495 0.0
          0.0234 -0.01495 0.0
          0.0221 -0.01495 0.0
          0.0208 -0.01495 0.0