<?xml version="1.0"?>
<VTKFile type="UnstructuredGrid" version="0.1" byte_order="LittleEndian">
  <UnstructuredGrid>
    <Piece NumberOfPoints="961" NumberOfCells="900">
      <PointData Scalars="Temperature">
        <DataArray type="Float32" Name="Temperature" format="ascii">
          21.0019
          21.0328
          21.0648
          21.0967
          21.1237
          21.1426
          21.1521
          21.1554
          21.154
          21.1482
          21.1369
          21.122
          21.107
          21.0958
          21.0901
          21.0903
          21.0962
          21.1076
          21.1229
          21.138
          21.1494
          21.1553
          21.1569
          21.1539
          21.1452
          21.1279
          21.1036
          21.0756
          21.0486
          21.024
          21.0015
          21.0318
          21.5282
          22.0606
          22.5951
          23.0611
          23.3644
          23.513
          23.5521
          23.5364
          23.4441
          23.2595
          22.9958
          22.7386
          22.5489
          22.4598
          22.4617
          22.5545
          22.7484
          23.0099
          23.2774
          23.4645
          23.5585
          23.5758
          23.5407
          23.4038
          23.1262
          22.7049
          22.2338
          21.7831
          21.3884
          21.0234
          21.0592
          21.9847
          22.9912
          24.1934
          25.1727
          25.8052
          25.9504
          25.9882
          25.973
          25.8827
          25.4679
          24.884
          24.2554
          23.9043
          23.7438
          23.7472
          23.9147
          24.2737
          24.9119
          25.5039
          25.9239
          26.0158
          26.0326
          25.9986
          25.8648
          25.2786
          24.3856
          23.3122
          22.46
          21.7237
          21.0436
          21.0819
          22.3617
          23.7656
          25.4453
          28.4635
          28.4639
          28.464
          28.4641
          28.4641
          28.4641
          28.4638
          26.3602
          25.5397
          25.0797
          24.8755
          24.8802
          25.0941
          25.5651
          26.3991
          28.5274
          28.5277
          28.5277
          28.5277
          28.5277
          28.5275
          28.5272
          25.6993
          24.2105
          23.0254
          22.0067
          21.0607
          21.0984
          22.6326
          24.2834
          26.2388
          28.4645
          28.4646
          28.4648
          28.4649
          28.4649
          28.4648
          28.4647
          27.3292
          26.49
          26.0253
          25.8134
          25.8191
          26.0427
          26.5202
          27.3749
          28.5283
          28.5284
          28.5285
          28.5285
          28.5284
          28.5283
          28.5281
          26.537
          24.8269
          23.4454
          22.2229
          21.0739
          21.1088
          22.7971
          24.5679
          26.466
          28.4664
          28.4665
          28.4666
          28.4667
          28.4667
          28.4667
          28.4667
          27.7312
          27.1322
          26.7358
          26.5484
          26.5547
          26.755
          27.1651
          27.779
          28.5303
          28.5303
          28.5303
          28.5303
          28.5302
          28.5302
          28.5301
          26.8014
          25.1856
          23.7192
          22.3719
          21.0831
          21.1145
          22.8831
          24.692
          26.5589
          28.4694
          28.4695
          28.4696
          28.4697
          28.4697
          28.4697
          28.4697
          27.9687
          27.5446
          27.2473
          27.0992
          27.1058
          27.2675
          27.5788
          28.0174
          28.5333
          28.5333
          28.5333
          28.5333
          28.5332
          28.5331
          28.533
          26.9217
          25.3629
          23.88
          22.4649
          21.089
          21.1172
          22.9233
          24.7484
          26.6005
          28.4735
          28.4736
          28.4737
          28.4738
          28.4738
          28.4738
          28.4738
          28.1242
          27.8242
          27.6089
          27.5
          27.5069
          27.6296
          27.8589
          28.1733
          28.5374
          28.5374
          28.5374
          28.5373
          28.5373
          28.5372
          28.5371
          26.9823
          25.4551
          23.9681
          22.5188
          21.0925
          21.1185
          22.9422
          24.7751
          26.6212
          28.4787
          28.4788
          28.4789
          28.4789
          28.479
          28.479
          28.479
          28.2317
          28.0189
          27.8653
          27.7877
          27.7947
          27.8862
          28.0539
          28.281
          28.5425
          28.5425
          28.5425
          28.5425
          28.5425
          28.5424
          28.5423
          27.0156
          25.5049
          24.0163
          22.5489
          21.0944
          21.1191
          22.9516
          24.7889
          26.6334
          28.4849
          28.485
          28.4851
          28.4852
          28.4852
          28.4853
          28.4853
          28.3086
          28.1571
          28.048
          27.9937
          28.0007
          28.069
          28.1923
          28.358
          28.5488
          28.5488
          28.5488
          28.5488
          28.5487
          28.5486
          28.5486
          27.0357
          25.533
          24.0433
          22.5657
          21.0955
          21.1195
          22.957
          24.7973
          26.6422
          28.4923
          28.4924
          28.4925
          28.4926
          28.4926
          28.4926
          28.4926
          28.3653
          28.2568
          28.1793
          28.1418
          28.1488
          28.2004
          28.292
          28.4147
          28.5562
          28.5562
          28.5561
          28.5561
          28.5561
          28.556
          28.5559
          27.0495
          25.5503
          24.0592
          22.5755
          21.0962
          21.1197
          22.9607
          24.8037
          26.6501
          28.5007
          28.5009
          28.5009
          28.501
          28.5011
          28.5011
          28.5011
          28.4083
          28.3301
          28.275
          28.2493
          28.2564
          28.2961
          28.3653
          28.4577
          28.5646
          28.5646
          28.5646
          28.5645
          28.5645
          28.5644
          28.5643
          27.0605
          25.5622
          24.0696
          22.5817
          21.0966
          21.1199
          22.9639
          24.8095
          26.6579
          28.5103
          28.5104
          28.5105
          28.5106
          28.5106
          28.5106
          28.5107
          28.4422
          28.3853
          28.346
          28.3288
          28.3358
          28.3672
          28.4206
          28.4915
          28.5741
          28.5741
          28.5741
          28.5741
          28.574
          28.5739
          28.5738
          27.0704
          25.5716
          24.0772
          22.5861
          21.0968
          21.1201
          22.967
          24.8153
          26.6662
          28.5209
          28.521
          28.5211
          28.5212
          28.5213
          28.5213
          28.5213
          28.47
          28.4283
          28.4002
          28.3889
          28.3959
          28.4213
          28.4635
          28.5194
          28.5848
          28.5848
          28.5847
          28.5847
          28.5846
          28.5845
          28.5844
          27.0802
          25.5802
          24.0836
          22.5897
          21.0971
          21.1203
          22.9703
          24.8215
          26.6752
          28.5326
          28.5327
          28.5328
          28.5329
          28.533
          28.533
          28.5331
          28.494
          28.4631
          28.443
          28.4359
          28.443
          28.4641
          28.4983
          28.5434
          28.5965
          28.5965
          28.5964
          28.5964
          28.5963
          28.5962
          28.5961
          27.0905
          25.5887
          24.0899
          22.5931
          21.0973
          21.1205
          22.9738
          24.8282
          26.685
          28.5454
          28.5455
          28.5457
          28.5458
          28.5458
          28.5459
          28.5459
          28.5158
          28.4926
          28.4783
          28.4743
          28.4814
          28.4995
          28.5278
          28.5651
          28.6093
          28.6093
          28.6093
          28.6092
          28.6091
          28.609
          28.6089
          27.1016
          25.598
          24.0967
          22.5968
          21.0975
          21.1208
          22.9777
          24.8356
          26.6957
          28.5593
          28.5594
          28.5595
          28.5597
          28.5598
          28.5599
          28.5599
          28.5364
          28.519
          28.5091
          28.5074
          28.5144
          28.5302
          28.5542
          28.5857
          28.6233
          28.6232
          28.6232
          28.6231
          28.6229
          28.6228
          28.6227
          27.1141
          25.6085
          24.1045
          22.6011
          21.0978
          21.1211
          22.9822
          24.844
          26.7075
          28.5742
          28.5743
          28.5745
          28.5747
          28.5748
          28.575
          28.575
          28.5567
          28.5439
          28.5373
          28.5374
          28.5444
          28.5584
          28.5791
          28.6059
          28.6383
          28.6383
          28.6382
          28.638
          28.6379
          28.6377
          28.6376
          27.1283
          25.6213
          24.1144
          22.6067
          21.0981
          21.1214
          22.9877
          24.8539
          26.7208
          28.5901
          28.5903
          28.5905
          28.5908
          28.591
          28.5912
          28.5913
          28.5774
          28.5685
          28.5647
          28.5663
          28.5733
          28.5858
          28.6036
          28.6266
          28.6545
          28.6545
          28.6543
          28.6541
          28.6538
          28.6536
          28.6535
          27.1454
          25.638
          24.128
          22.6146
          21.0986
          21.1219
          22.9951
          24.8666
          26.7364
          28.607
          28.6072
          28.6075
          28.608
          28.6083
          28.6086
          28.6087
          28.5991
          28.5938
          28.5927
          28.5957
          28.6027
          28.6138
          28.6289
          28.6482
          28.672
          28.6719
          28.6716
          28.6712
          28.6708
          28.6705
          28.6703
          27.1671
          25.6614
          24.1484
          22.6268
          21.0995
          21.1224
          23.0067
          24.885
          26.7563
          28.6248
          28.6251
          28.6256
          28.6262
          28.6269
          28.6273
          28.6275
          28.6223
          28.6209
          28.6226
          28.6271
          28.6341
          28.6436
          28.6559
          28.6714
          28.6907
          28.6905
          28.6901
          28.6894
          28.6888
          28.6883
          28.6881
          27.1968
          25.6974
          24.1814
          22.6471
          21.1005
          21.1249
          23.0269
          24.9158
          26.7851
          28.6434
          28.6437
          28.6445
          28.6456
          28.6466
          28.6474
          28.6477
          28.6478
          28.6508
          28.6557
          28.6619
          28.6689
          28.6767
          28.6858
          28.6968
          28.7108
          28.7105
          28.7098
          28.7088
          28.7077
          28.707
          28.7066
          27.2408
          25.7566
          24.2381
          22.6823
          21.104
          21.1228
          23.069
          24.9733
          26.8332
          28.6624
          28.663
          28.6643
          28.666
          28.6678
          28.6691
          28.6696
          28.6763
          28.6849
          28.6937
          28.7019
          28.7088
          28.7147
          28.7198
          28.7253
          28.7326
          28.7321
          28.7308
          28.7291
          28.7274
          28.7262
          28.7257
          27.3109
          25.859
          24.3392
          22.749
          21.1034
          21.1501
          23.1484
          25.0947
          26.9226
          28.6817
          28.6825
          28.6846
          28.6875
          28.6905
          28.6928
          28.6936
          28.7092
          28.7249
          28.7386
          28.7491
          28.7561
          28.7594
          28.7597
          28.758
          28.7565
          28.7557
          28.7535
          28.7505
          28.7477
          28.7457
          28.7449
          27.4274
          26.0405
          24.5298
          22.8659
          21.1332
          21.0681
          23.3717
          25.3426
          27.1066
          28.7004
          28.7017
          28.705
          28.7098
          28.715
          28.7191
          28.7207
          28.7482
          28.7731
          28.7927
          28.8061
          28.813
          28.8135
          28.8077
          28.7968
          28.7834
          28.7819
          28.7779
          28.7729
          28.7681
          28.7648
          28.7636
          27.6196
          26.3698
          24.8801
          23.1434
          21.0538
          21.5251
          23.6996
          25.9503
          27.4567
          28.7178
          28.7197
          28.7249
          28.7327
          28.7418
          28.7493
          28.7525
          28.7967
          28.8331
          28.8591
          28.8754
          28.8823
          28.8798
          28.8675
          28.845
          28.8148
          28.8118
          28.8046
          28.7958
          28.7881
          28.7829
          28.781
          27.9154
          26.9293
          25.6283
          23.5427
          21.5181
          19.7272
          25.5177
          27.1006
          28.0179
          28.7325
          28.7353
          28.7432
          28.755
          28.7699
          28.7866
          28.7923
          28.862
          28.9095
          28.9411
          28.96
          28.9669
          28.9617
          28.9437
          28.9095
          28.854
          28.8486
          28.8328
          28.8183
          28.8065
          28.7984
          28.7956
          28.3189
          27.7612
          26.9545
          25.4563
          19.7133
          28.7062
          28.7171
          28.7257
          28.7342
          28.7413
          28.7472
          28.7588
          28.7752
          28.797
          28.8244
          28.8685
          28.9553
          29.0057
          29.0413
          29.0623
          29.0693
          29.062
          29.04
          29.002
          28.9266
          28.8865
          28.8606
          28.8392
          28.8224
          28.8104
          28.8038
          28.7955
          28.7861
          28.7772
          28.7684
          28.7575
          28.7105
          28.7181
          28.7262
          28.7347
          28.744
          28.7554
          28.7706
          28.7914
          28.8193
          28.8571
          28.9081
          28.9635
          29.0138
          29.0489
          29.0699
          29.0769
          29.0698
          29.0484
          29.0114
          28.9664
          28.9213
          28.8849
          28.8563
          28.8347
          28.8186
          28.8063
          28.7959
          28.7864
          28.7776
          28.7695
          28.7618
          28.7153
          28.7202
          28.7271
          28.7359
          28.7466
          28.7602
          28.778
          28.8018
          28.8338
          28.8767
          28.9324
          28.9903
          29.0373
          29.0717
          29.0925
          29.0995
          29.0928
          29.0725
          29.0402
          28.9981
          28.9484
          28.902
          28.8678
          28.8425
          28.8235
          28.8088
          28.7969
          28.7869
          28.7783
          28.7714
          28.7665
          28.7188
          28.721
          28.7276
          28.7364
          28.7475
          28.7618
          28.7805
          28.8054
          28.8388
          28.8832
          28.944
          29.006
          29.0528
          29.0868
          29.1075
          29.1146
          29.108
          29.0885
          29.0571
          29.0153
          28.9606
          28.9082
          28.8718
          28.8452
          28.8251
          28.8097
          28.7974
          28.7871
          28.7787
          28.7723
          28.77
        </DataArray>
      </PointData>
      <CellData>
      </CellData>
      <Points>
        <DataArray type="Float32" NumberOfComponents="3" format="ascii">
          0.039 0.00195 0.0
          0.0377 0.00195 0.0
          0.0364 0.00195 0.0
          0.0351 0.00195 0.0
          0.0338 0.00195 0.0
          0.0325 0.00195 0.0
          0.0312 0.00195 0.0
          0.0299 0.00195 0.0
          0.0286 0.00195 0.0
          0.0273 0.00195 0.0
          0.026 0.00195 0.0
          0.0247 0.00195 0.0
          0.0234 0.00195 0.0
          0.0221 0.00195 0.0
          0.0208 0.00195 0.0
          0.0195 0.00195 0.0
          0.0182 0.00195 0.0
          0.0169 0.00195 0.0
          0.0156 0.00195 0.0
          0.0143 0.00195 0.0
          0.013 0.00195 0.0
          0.0117 0.00195 0.0
          0.0104 0.00195 0.0
          0.0091 0.00195 0.0
          0.0078 0.00195 0.0
          0.0065 0.00195 0.0
          0.0052 0.00195 0.0
          0.0039 0.00195 0.0
          0.0026 0.00195 0.0
          0.0013 0.00195 0.0
          0 0.00195 0.0
          0.039 0.00065 0.0
          0.0377 0.00065 0.0
          0.0364 0.00065 0.0
          0.0351 0.00065 0.0
          0.0338 0.00065 0.0
          0.0325 0.00065 0.0
          0.0312 0.00065 0.0
          0.0299 0.00065 0.0
          0.0286 0.00065 0.0
          0.0273 0.00065 0.0
          0.026 0.00065 0.0
          0.0247 0.00065 0.0
          0.0234 0.00065 0.0
          0.0221 0.00065 0.0
          0.0208 0.00065 0.0
          0.0195 0.00065 0.0
          0.0182 0.00065 0.0
          0.0169 0.00065 0.0
          0.0156 0.00065 0.0
          0.0143 0.00065 0.0
          0.013 0.00065 0.0
          0.0117 0.00065 0.0
          0.0104 0.00065 0.0
          0.0091 0.00065 0.0
          0.0078 0.00065 0.0
          0.0065 0.00065 0.0
          0.0052 0.00065 0.0
          0.0039 0.00065 0.0
          0.0026 0.00065 0.0
          0.0013 0.00065 0.0
          0 0.00065 0.0
          0.039 -0.00065 0.0
          0.0377 -0.00065 0.0
          0.0364 -0.00065 0.0
          0.0351 -0.00065 0.0
          0.0338 -0.00065 0.0
          0.0325 -0.00065 0.0
          0.0312 -0.00065 0.0
          0.0299 -0.00065 0.0
          0.0286 -0.00065 0.0
          0.0273 -0.00065 0.0
          0.026 -0.00065 0.0
          0.0247 -0.00065 0.0
          0.0234 -0.00065 0.0
          0.0221 -0.00065 0.0
          0.0208 -0.00065 0.0
          0.0195 -0.00065 0.0
          0.0182 -0.00065 0.0
          0.0169 -0.00065 0.0
          0.0156 -0.00065 0.0
          0.0143 -0.00065 0.0
          0.013 -0.00065 0.0
          0.0117 -0.00065 0.0
          0.0104 -0.00065 0.0
          0.0091 -0.00065 0.0
          0.0078 -0.00065 0.0
          0.0065 -0.00065 0.0
          0.0052 -0.00065 0.0
          0.0039 -0.00065 0.0
          0.0026 -0.00065 0.0
          0.0013 -0.00065 0.0
          0 -0.00065 0.0
          0.039 -0.00195 0.0
          0.0377 -0.00195 0.0
          0.0364 -0.00195 0.0
          0.0351 -0.00195 0.0
          0.0338 -0.00195 0.0
          0.0325 -0.00195 0.0
          0.0312 -0.00195 0.0
          0.0299 -0.00195 0.0
          0.0286 -0.00195 0.0
          0.0273 -0.00195 0.0
          0.026 -0.00195 0.0
          0.0247 -0.00195 0.0
          0.0234 -0.00195 0.0
          0.0221 -0.00195 0.0
          0.0208 -0.00195 0.0
          0.0195 -0.00195 0.0
          0.0182 -0.00195 0.0
          0.0169 -0.00195 0.0
          0.0156 -0.00195 0.0
          0.0143 -0.00195 0.0
          0.013 -0.00195 0.0
          0.0117 -0.00195 0.0
          0.0104 -0.00195 0.0
          0.0091 -0.00195 0.0
          0.0078 -0.00195 0.0
          0.0065 -0.00195 0.0
          0.0052 -0.00195 0.0
          0.0039 -0.00195 0.0
          0.0026 -0.00195 0.0
          0.0013 -0.00195 0.0
          0 -0.00195 0.0
          0.039 -0.00325 0.0
          0.0377 -0.00325 0.0
          0.0364 -0.00325 0.0
          0.0351 -0.00325 0.0
          0.0338 -0.00325 0.0
          0.0325 -0.00325 0.0
          0.0312 -0.00325 0.0
          0.0299 -0.00325 0.0
          0.0286 -0.00325 0.0
          0.0273 -0.00325 0.0
          0.026 -0.00325 0.0
          0.0247 -0.00325 0.0
          0.0234 -0.00325 0.0
          0.0221 -0.00325 0.0
          0.0208 -0.00325 0.0
          0.0195 -0.00325 0.0
          0.0182 -0.00325 0.0
          0.0169 -0.00325 0.0
          0.0156 -0.00325 0.0
          0.0143 -0.00325 0.0
          0.013 -0.00325 0.0
          0.0117 -0.00325 0.0
          0.0104 -0.00325 0.0
          0.0091 -0.00325 0.0
          0.0078 -0.00325 0.0
          0.0065 -0.00325 0.0
          0.0052 -0.00325 0.0
          0.0039 -0.00325 0.0
          0.0026 -0.00325 0.0
          0.0013 -0.00325 0.0
          0 -0.00325 0.0
          0.039 -0.00455 0.0
          0.0377 -0.00455 0.0
          0.0364 -0.00455 0.0
          0.0351 -0.00455 0.0
          0.0338 -0.00455 0.0
          0.0325 -0.00455 0.0
          0.0312 -0.00455 0.0
          0.0299 -0.00455 0.0
          0.0286 -0.00455 0.0
          0.0273 -0.00455 0.0
          0.026 -0.00455 0.0
          0.0247 -0.00455 0.0
          0.0234 -0.00455 0.0
          0.0221 -0.00455 0.0
          0.0208 -0.00455 0.0
          0.0195 -0.00455 0.0
          0.0182 -0.00455 0.0
          0.0169 -0.00455 0.0
          0.0156 -0.00455 0.0
          0.0143 -0.00455 0.0
          0.013 -0.00455 0.0
          0.0117 -0.00455 0.0
          0.0104 -0.00455 0.0
          0.0091 -0.00455 0.0
          0.0078 -0.00455 0.0
          0.0065 -0.00455 0.0
          0.0052 -0.00455 0.0
          0.0039 -0.00455 0.0
          0.0026 -0.00455 0.0
          0.0013 -0.00455 0.0
          0 -0.00455 0.0
          0.039 -0.00585 0.0
          0.0377 -0.00585 0.0
          0.0364 -0.00585 0.0
          0.0351 -0.00585 0.0
          0.0338 -0.00585 0.0
          0.0325 -0.00585 0.0
          0.0312 -0.00585 0.0
          0.0299 -0.00585 0.0
          0.0286 -0.00585 0.0
          0.0273 -0.00585 0.0
          0.026 -0.00585 0.0
          0.0247 -0.00585 0.0
          0.0234 -0.00585 0.0
          0.0221 -0.00585 0.0
          0.0208 -0.00585 0.0
          0.0195 -0.00585 0.0
          0.0182 -0.00585 0.0
          0.0169 -0.00585 0.0
          0.0156 -0.00585 0.0
          0.0143 -0.00585 0.0
          0.013 -0.00585 0.0
          0.0117 -0.00585 0.0
          0.0104 -0.00585 0.0
          0.0091 -0.00585 0.0
          0.0078 -0.00585 0.0
          0.0065 -0.00585 0.0
          0.0052 -0.00585 0.0
          0.0039 -0.00585 0.0
          0.0026 -0.00585 0.0
          0.0013 -0.00585 0.0
          0 -0.00585 0.0
          0.039 -0.00715 0.0
          0.0377 -0.00715 0.0
          0.0364 -0.00715 0.0
          0.0351 -0.00715 0.0
          0.0338 -0.00715 0.0
          0.0325 -0.00715 0.0
          0.0312 -0.00715 0.0
          0.0299 -0.00715 0.0
          0.0286 -0.00715 0.0
          0.0273 -0.00715 0.0
          0.026 -0.00715 0.0
          0.0247 -0.00715 0.0
          0.0234 -0.00715 0.0
          0.0221 -0.00715 0.0
          0.0208 -0.00715 0.0
          0.0195 -0.00715 0.0
          0.0182 -0.00715 0.0
          0.0169 -0.00715 0.0
          0.0156 -0.00715 0.0
          0.0143 -0.00715 0.0
          0.013 -0.00715 0.0
          0.0117 -0.00715 0.0
          0.0104 -0.00715 0.0
          0.0091 -0.00715 0.0
          0.0078 -0.00715 0.0
          0.0065 -0.00715 0.0
          0.0052 -0.00715 0.0
          0.0039 -0.00715 0.0
          0.0026 -0.00715 0.0
          0.0013 -0.00715 0.0
          0 -0.00715 0.0
          0.039 -0.00845 0.0
          0.0377 -0.00845 0.0
          0.0364 -0.00845 0.0
          0.0351 -0.00845 0.0
          0.0338 -0.00845 0.0
          0.0325 -0.00845 0.0
          0.0312 -0.00845 0.0
          0.0299 -0.00845 0.0
          0.0286 -0.00845 0.0
          0.0273 -0.00845 0.0
          0.026 -0.00845 0.0
          0.0247 -0.00845 0.0
          0.0234 -0.00845 0.0
          0.0221 -0.00845 0.0
          0.0208 -0.00845 0.0
          0.0195 -0.00845 0.0
          0.0182 -0.00845 0.0
          0.0169 -0.00845 0.0
          0.0156 -0.00845 0.0
          0.0143 -0.00845 0.0
          0.013 -0.00845 0.0
          0.0117 -0.00845 0.0
          0.0104 -0.00845 0.0
          0.0091 -0.00845 0.0
          0.0078 -0.00845 0.0
          0.0065 -0.00845 0.0
          0.0052 -0.00845 0.0
          0.0039 -0.00845 0.0
          0.0026 -0.00845 0.0
          0.0013 -0.00845 0.0
          0 -0.00845 0.0
          0.039 -0.00975 0.0
          0.0377 -0.00975 0.0
          0.0364 -0.00975 0.0
          0.0351 -0.00975 0.0
          0.0338 -0.00975 0.0
          0.0325 -0.00975 0.0
          0.0312 -0.00975 0.0
          0.0299 -0.00975 0.0
          0.0286 -0.00975 0.0
          0.0273 -0.00975 0.0
          0.026 -0.00975 0.0
          0.0247 -0.00975 0.0
          0.0234 -0.00975 0.0
          0.0221 -0.00975 0.0
          0.0208 -0.00975 0.0
          0.0195 -0.00975 0.0
          0.0182 -0.00975 0.0
          0.0169 -0.00975 0.0
          0.0156 -0.00975 0.0
          0.0143 -0.00975 0.0
          0.013 -0.00975 0.0
          0.0117 -0.00975 0.0
          0.0104 -0.00975 0.0
          0.0091 -0.00975 0.0
          0.0078 -0.00975 0.0
          0.0065 -0.00975 0.0
          0.0052 -0.00975 0.0
          0.0039 -0.00975 0.0
          0.0026 -0.00975 0.0
          0.0013 -0.00975 0.0
          0 -0.00975 0.0
          0.039 -0.01105 0.0
          0.0377 -0.01105 0.0
          0.0364 -0.01105 0.0
          0.0351 -0.01105 0.0
          0.0338 -0.01105 0.0
          0.0325 -0.01105 0.0
          0.0312 -0.01105 0.0
          0.0299 -0.01105 0.0
          0.0286 -0.01105 0.0
          0.0273 -0.01105 0.0
          0.026 -0.01105 0.0
          0.0247 -0.01105 0.0
          0.0234 -0.01105 0.0
          0.0221 -0.01105 0.0
          0.0208 -0.01105 0.0
          0.0195 -0.01105 0.0
          0.0182 -0.01105 0.0
          0.0169 -0.01105 0.0
          0.0156 -0.01105 0.0
          0.0143 -0.01105 0.0
          0.013 -0.01105 0.0
          0.0117 -0.01105 0.0
          0.0104 -0.01105 0.0
          0.0091 -0.01105 0.0
          0.0078 -0.01105 0.0
          0.0065 -0.01105 0.0
          0.0052 -0.01105 0.0
          0.0039 -0.01105 0.0
          0.0026 -0.01105 0.0
          0.0013 -0.01105 0.0
          0 -0.01105 0.0
          0.039 -0.01235 0.0
          0.0377 -0.01235 0.0
          0.0364 -0.01235 0.0
          0.0351 -0.01235 0.0
          0.0338 -0.01235 0.0
          0.0325 -0.01235 0.0
          0.0312 -0.01235 0.0
          0.0299 -0.01235 0.0
          0.0286 -0.01235 0.0
          0.0273 -0.01235 0.0
          0.026 -0.01235 0.0
          0.0247 -0.01235 0.0
          0.0234 -0.01235 0.0
          0.0221 -0.01235 0.0
          0.0208 -0.01235 0.0
          0.0195 -0.01235 0.0
          0.0182 -0.01235 0.0
          0.0169 -0.01235 0.0
          0.0156 -0.01235 0.0
          0.0143 -0.01235 0.0
          0.013 -0.01235 0.0
          0.0117 -0.01235 0.0
          0.0104 -0.01235 0.0
          0.0091 -0.01235 0.0
          0.0078 -0.01235 0.0
          0.0065 -0.01235 0.0
          0.0052 -0.01235 0.0
          0.0039 -0.01235 0.0
          0.0026 -0.01235 0.0
          0.0013 -0.01235 0.0
          0 -0.01235 0.0
          0.039 -0.01365 0.0
          0.0377 -0.01365 0.0
          0.0364 -0.01365 0.0
          0.0351 -0.01365 0.0
          0.0338 -0.01365 0.0
          0.0325 -0.01365 0.0
          0.0312 -0.01365 0.0
          0.0299 -0.01365 0.0
          0.0286 -0.01365 0.0
          0.0273 -0.01365 0.0
          0.026 -0.01365 0.0
          0.0247 -0.01365 0.0
          0.0234 -0.01365 0.0
          0.0221 -0.01365 0.0
          0.0208 -0.01365 0.0
          0.0195 -0.01365 0.0
          0.0182 -0.01365 0.0
          0.0169 -0.01365 0.0
          0.0156 -0.01365 0.0
          0.0143 -0.01365 0.0
          0.013 -0.01365 0.0
          0.0117 -0.01365 0.0
          0.0104 -0.01365 0.0
          0.0091 -0.01365 0.0
          0.0078 -0.01365 0.0
          0.0065 -0.01365 0.0
          0.0052 -0.01365 0.0
          0.0039 -0.01365 0.0
          0.0026 -0.01365 0.0
          0.0013 -0.01365 0.0
          0 -0.01365 0.0
          0.039 -0.01495 0.0
          0.0377 -0.01495 0.0
          0.0364 -0.01495 0.0
          0.0351 -0.01495 0.0
          0.0338 -0.01495 0.0
          0.0325 -0.01495 0.0
          0.0312 -0.01495 0.0
          0.0299 -0.01495 0.0
          0.0286 -0.01495 0.0
          0.0273 -0.01495 0.0
          0.026 -0.01495 0.0
          0.0247 -0.01495 0.0
          0.0234 -0.01495 0.0
          0.0221 -0.01495 0.0