<?xml version="1.0"?>
<VTKFile type="UnstructuredGrid" version="0.1" byte_order="LittleEndian">
  <UnstructuredGrid>
    <Piece NumberOfPoints="961" NumberOfCells="900">
      <PointData Scalars="Temperature">
        <DataArray type="Float32" Name="Temperature" format="ascii">
          21.0034
          21.0574
          21.1134
          21.1692
          21.2165
          21.2495
          21.2662
          21.2719
          21.2693
          21.2592
          21.2395
          21.2136
          21.1873
          21.1678
          21.1578
          21.1579
          21.1681
          21.1879
          21.2145
          21.2406
          21.2605
          21.2708
          21.2735
          21.2683
          21.2531
          21.2231
          21.1807
          21.1319
          21.0848
          21.0419
          21.0025
          21.0557
          21.9245
          22.8559
          23.7908
          24.6058
          25.1362
          25.3961
          25.4643
          25.437
          25.2758
          24.9535
          24.4929
          24.0436
          23.7118
          23.5554
          23.5572
          23.7175
          24.0537
          24.5074
          24.972
          25.2971
          25.4603
          25.4902
          25.4291
          25.1905
          24.7069
          23.973
          23.1519
          22.366
          21.6776
          21.0408
          21.1036
          22.7233
          24.4842
          26.5864
          28.2985
          29.4041
          29.6579
          29.724
          29.6975
          29.5398
          28.8157
          27.7961
          26.6984
          26.0845
          25.8028
          25.8063
          26.0953
          26.7174
          27.825
          28.8529
          29.5826
          29.7422
          29.7713
          29.712
          29.479
          28.4581
          26.9025
          25.0323
          23.5468
          22.2626
          21.076
          21.1433
          23.3829
          25.8386
          28.7754
          34.049
          34.0497
          34.0499
          34.0501
          34.0501
          34.05
          34.0496
          30.3781
          28.9458
          28.1419
          27.7832
          27.7881
          28.1568
          28.972
          30.4182
          34.1152
          34.1157
          34.1158
          34.1158
          34.1157
          34.1154
          34.1148
          29.192
          26.5985
          24.5329
          22.7561
          21.1059
          21.1722
          23.8566
          26.744
          30.1622
          34.0503
          34.0505
          34.0508
          34.0509
          34.0509
          34.0509
          34.0507
          32.0721
          30.6084
          29.7965
          29.4243
          29.4301
          29.8145
          30.6396
          32.1194
          34.1164
          34.1166
          34.1167
          34.1166
          34.1165
          34.1163
          34.1161
          30.651
          27.6727
          25.265
          23.1332
          21.1289
          21.1904
          24.1439
          27.241
          30.5587
          34.0523
          34.0525
          34.0527
          34.0528
          34.0529
          34.0528
          34.0528
          32.7744
          31.7311
          31.0391
          30.7096
          30.7162
          31.0589
          31.7651
          32.8238
          34.1185
          34.1185
          34.1186
          34.1185
          34.1184
          34.1183
          34.1181
          31.111
          28.2973
          25.742
          23.3928
          21.145
          21.2003
          24.2939
          27.457
          30.7194
          34.0553
          34.0555
          34.0557
          34.0558
          34.0559
          34.0559
          34.0558
          33.1881
          32.4511
          31.9326
          31.6719
          31.6788
          31.9535
          32.4864
          33.2384
          34.1215
          34.1215
          34.1215
          34.1215
          34.1214
          34.1213
          34.1211
          31.3189
          28.6052
          26.0215
          23.5546
          21.1552
          21.205
          24.3634
          27.5541
          30.7899
          34.0594
          34.0596
          34.0597
          34.0598
          34.0599
          34.0599
          34.0599
          33.4574
          32.9378
          32.5631
          32.371
          32.3781
          32.5844
          32.9737
          33.5081
          34.1255
          34.1256
          34.1256
          34.1255
          34.1254
          34.1253
          34.1251
          31.4222
          28.7643
          26.174
          23.648
          21.1612
          21.2072
          24.3954
          27.5987
          30.8232
          34.0644
          34.0646
          34.0648
          34.0649
          34.065
          34.065
          34.065
          33.6418
          33.2751
          33.0083
          32.8712
          32.8784
          33.0299
          33.3113
          33.6927
          34.1306
          34.1306
          34.1306
          34.1305
          34.1305
          34.1303
          34.1302
          31.4771
          28.8487
          26.2566
          23.6997
          21.1646
          21.2082
          24.4107
          27.6204
          30.8409
          34.0705
          34.0707
          34.0709
          34.071
          34.071
          34.0711
          34.0711
          33.7718
          33.5125
          33.3237
          33.2273
          33.2345
          33.3454
          33.5488
          33.8227
          34.1367
          34.1367
          34.1367
          34.1366
          34.1365
          34.1364
          34.1362
          31.5083
          28.8949
          26.3017
          23.728
          21.1665
          21.2087
          24.4186
          27.6323
          30.852
          34.0776
          34.0778
          34.078
          34.0781
          34.0782
          34.0782
          34.0782
          33.8653
          33.6815
          33.5482
          33.4811
          33.4883
          33.57
          33.7179
          33.9163
          34.1438
          34.1438
          34.1437
          34.1437
          34.1436
          34.1435
          34.1433
          31.5278
          28.9216
          26.3272
          23.7439
          21.1675
          21.209
          24.4234
          27.6401
          30.8607
          34.0858
          34.0859
          34.0861
          34.0862
          34.0863
          34.0863
          34.0864
          33.934
          33.8033
          33.7092
          33.6629
          33.6701
          33.731
          33.8396
          33.9849
          34.1519
          34.1519
          34.1519
          34.1518
          34.1517
          34.1516
          34.1514
          31.5416
          28.9383
          26.3425
          23.7533
          21.1681
          21.2093
          24.427
          27.6463
          30.8687
          34.0949
          34.0951
          34.0953
          34.0954
          34.0955
          34.0955
          34.0955
          33.9857
          33.8924
          33.826
          33.7944
          33.8016
          33.8478
          33.9287
          34.0366
          34.161
          34.161
          34.161
          34.1609
          34.1608
          34.1607
          34.1605
          31.5529
          28.9503
          26.3527
          23.7594
          21.1685
          21.2095
          24.4302
          27.6523
          30.8769
          34.1051
          34.1053
          34.1054
          34.1056
          34.1057
          34.1057
          34.1057
          34.0259
          33.959
          33.9121
          33.8909
          33.8982
          33.9339
          33.9953
          34.0768
          34.1712
          34.1712
          34.1711
          34.171
          34.1709
          34.1708
          34.1706
          31.5633
          28.9601
          26.3606
          23.7639
          21.1688
          21.2097
          24.4334
          27.6584
          30.8856
          34.1163
          34.1165
          34.1166
          34.1168
          34.1169
          34.1169
          34.117
          34.0584
          34.0101
          33.9772
          33.9633
          33.9706
          33.999
          34.0465
          34.1093
          34.1823
          34.1823
          34.1823
          34.1822
          34.1821
          34.1819
          34.1818
          31.5738
          28.9695
          26.3678
          23.768
          21.169
          21.2099
          24.4369
          27.665
          30.8951
          34.1285
          34.1287
          34.1288
          34.129
          34.1291
          34.1292
          34.1292
          34.0859
          34.051
          34.028
          34.0194
          34.0266
          34.0497
          34.0873
          34.1367
          34.1945
          34.1945
          34.1945
          34.1943
          34.1942
          34.1941
          34.1939
          31.5852
          28.9794
          26.3754
          23.7722
          21.1693
          21.2101
          24.4409
          27.6723
          30.9055
          34.1416
          34.1418
          34.1421
          34.1422
          34.1424
          34.1425
          34.1425
          34.1103
          34.0851
          34.0693
          34.0645
          34.0718
          34.091
          34.1213
          34.161
          34.2078
          34.2077
          34.2077
          34.2075
          34.2074
          34.2072
          34.207
          31.598
          28.9912
          26.3846
          23.7774
          21.1696
          21.2104
          24.4456
          27.6809
          30.9172
          34.1558
          34.156
          34.1563
          34.1565
          34.1567
          34.1569
          34.1569
          34.133
          34.1151
          34.1047
          34.1028
          34.1101
          34.1264
          34.1513
          34.1837
          34.2221
          34.222
          34.2219
          34.2217
          34.2215
          34.2213
          34.2211
          31.6134
          29.0063
          26.397
          23.7847
          21.1701
          21.2108
          24.4519
          27.6918
          30.9308
          34.1709
          34.1712
          34.1715
          34.1718
          34.1721
          34.1723
          34.1724
          34.1551
          34.143
          34.1369
          34.1373
          34.1445
          34.1586
          34.1792
          34.2057
          34.2375
          34.2374
          34.2372
          34.2369
          34.2366
          34.2364
          34.2361
          31.6329
          29.0275
          26.4155
          23.7958
          21.1708
          21.2115
          24.4613
          27.7071
          30.9478
          34.1869
          34.1872
          34.1876
          34.1881
          34.1886
          34.1889
          34.189
          34.1775
          34.1704
          34.1679
          34.1703
          34.1775
          34.1896
          34.2065
          34.228
          34.254
          34.2539
          34.2536
          34.2531
          34.2527
          34.2523
          34.2521
          31.6597
          29.0601
          26.4453
          23.814
          21.1721
          21.2122
          24.4778
          27.7318
          30.9718
          34.2038
          34.2041
          34.2047
          34.2054
          34.2061
          34.2066
          34.2068
          34.2009
          34.1986
          34.1996
          34.2038
          34.211
          34.2212
          34.2346
          34.2513
          34.2717
          34.2715
          34.271
          34.2704
          34.2697
          34.2691
          34.2688
          31.6998
          29.1138
          26.4964
          23.8461
          21.1737
          21.2162
          24.5088
          27.7777
          31.0106
          34.2213
          34.2217
          34.2226
          34.2238
          34.2249
          34.2258
          34.2261
          34.2261
          34.229
          34.2337
          34.2398
          34.247
          34.2552
          34.2649
          34.2765
          34.2908
          34.2905
          34.2897
          34.2886
          34.2875
          34.2867
          34.2862
          31.7641
          29.2067
          26.588
          23.9036
          21.1794
          21.2124
          24.5775
          27.8693
          31.0823
          34.2392
          34.2398
          34.2412
          34.2431
          34.245
          34.2464
          34.2469
          34.2542
          34.263
          34.272
          34.2802
          34.2874
          34.2934
          34.2988
          34.3044
          34.3116
          34.3111
          34.3097
          34.3079
          34.306
          34.3047
          34.3041
          31.8725
          29.3738
          26.7557
          24.015
          21.1783
          21.2591
          24.7103
          28.0707
          31.225
          34.2571
          34.258
          34.2603
          34.2634
          34.2666
          34.2691
          34.27
          34.2864
          34.3026
          34.3166
          34.3274
          34.3345
          34.338
          34.3382
          34.3364
          34.3344
          34.3335
          34.3312
          34.3281
          34.325
          34.3228
          34.3219
          32.0606
          29.6763
          27.0768
          24.2126
          21.2292
          21.1179
          25.0904
          28.4896
          31.5303
          34.2744
          34.2758
          34.2794
          34.2846
          34.2901
          34.2944
          34.296
          34.3246
          34.3501
          34.3702
          34.3838
          34.3909
          34.3914
          34.3856
          34.3743
          34.3602
          34.3586
          34.3545
          34.3491
          34.3441
          34.3405
          34.3392
          32.3784
          30.232
          27.6714
          24.6852
          21.093
          21.9033
          25.6504
          29.527
          32.1216
          34.2901
          34.2922
          34.2979
          34.3062
          34.3157
          34.3236
          34.3269
          34.3722
          34.4092
          34.4357
          34.4523
          34.4593
          34.4568
          34.4444
          34.4215
          34.3906
          34.3875
          34.38
          34.3707
          34.3625
          34.3569
          34.3548
          32.8739
          31.1822
          28.948
          25.3666
          21.8886
          18.8122
          28.7721
          31.4969
          33.0755
          34.3025
          34.3057
          34.3146
          34.3273
          34.3428
          34.36
          34.3659
          34.4365
          34.4846
          34.5165
          34.5356
          34.5426
          34.5375
          34.5194
          34.4849
          34.4288
          34.4233
          34.4071
          34.392
          34.3794
          34.3703
          34.3671
          33.554
          32.5984
          31.2143
          28.6432
          18.7947
          34.2486
          34.2669
          34.2806
          34.2938
          34.3068
          34.3155
          34.3287
          34.3464
          34.3691
          34.3972
          34.4416
          34.5285
          34.5793
          34.6151
          34.6364
          34.6434
          34.6362
          34.6141
          34.576
          34.5007
          34.4604
          34.434
          34.4117
          34.3937
          34.3801
          34.3708
          34.3567
          34.343
          34.3296
          34.3157
          34.2974
          34.2559
          34.2686
          34.2814
          34.2943
          34.3075
          34.322
          34.3394
          34.3617
          34.3908
          34.4294
          34.481
          34.5368
          34.5874
          34.6228
          34.6439
          34.651
          34.6439
          34.6225
          34.5854
          34.5402
          34.4947
          34.4575
          34.428
          34.4048
          34.3866
          34.3712
          34.3571
          34.3433
          34.3303
          34.3175
          34.3047
          34.2641
          34.272
          34.2826
          34.2951
          34.3093
          34.3258
          34.346
          34.3716
          34.4049
          34.4487
          34.5051
          34.5635
          34.6108
          34.6456
          34.6665
          34.6736
          34.6669
          34.6466
          34.6141
          34.5717
          34.5215
          34.4743
          34.4388
          34.4119
          34.3906
          34.373
          34.3577
          34.3439
          34.3314
          34.3209
          34.3129
          34.27
          34.2735
          34.2832
          34.2955
          34.31
          34.3272
          34.3483
          34.375
          34.4097
          34.4551
          34.5167
          34.5792
          34.6264
          34.6607
          34.6816
          34.6887
          34.6822
          34.6625
          34.631
          34.5889
          34.5335
          34.4803
          34.4427
          34.4143
          34.392
          34.3737
          34.358
          34.3441
          34.332
          34.3223
          34.3188
        </DataArray>
      </PointData>
      <CellData>
      </CellData>
      <Points>
        <DataArray type="Float32" NumberOfComponents="3" format="ascii">
          0.039 0.00195 0.0
          0.0377 0.00195 0.0
          0.0364 0.00195 0.0
          0.0351 0.00195 0.0
          0.0338 0.00195 0.0
          0.0325 0.00195 0.0
          0.0312 0.00195 0.0
          0.0299 0.00195 0.0
          0.0286 0.00195 0.0
          0.0273 0.00195 0.0
          0.026 0.00195 0.0
          0.0247 0.00195 0.0
          0.0234 0.00195 0.0
          0.0221 0.00195 0.0
          0.0208 0.00195 0.0
          0.0195 0.00195 0.0
          0.0182 0.00195 0.0
          0.0169 0.00195 0.0
          0.0156 0.00195 0.0
          0.0143 0.00195 0.0
          0.013 0.00195 0.0
          0.0117 0.00195 0.0
          0.0104 0.00195 0.0
          0.0091 0.00195 0.0
          0.0078 0.00195 0.0
          0.0065 0.00195 0.0
          0.0052 0.00195 0.0
          0.0039 0.00195 0.0
          0.0026 0.00195 0.0
          0.0013 0.00195 0.0
          0 0.00195 0.0
          0.039 0.00065 0.0
          0.0377 0.00065 0.0
          0.0364 0.00065 0.0
          0.0351 0.00065 0.0
          0.0338 0.00065 0.0
          0.0325 0.00065 0.0
          0.0312 0.00065 0.0
          0.0299 0.00065 0.0
          0.0286 0.00065 0.0
          0.0273 0.00065 0.0
          0.026 0.00065 0.0
          0.0247 0.00065 0.0
          0.0234 0.00065 0.0
          0.0221 0.00065 0.0
          0.0208 0.00065 0.0
          0.0195 0.00065 0.0
          0.0182 0.00065 0.0
          0.0169 0.00065 0.0
          0.0156 0.00065 0.0
          0.0143 0.00065 0.0
          0.013 0.00065 0.0
          0.0117 0.00065 0.0
          0.0104 0.00065 0.0
          0.0091 0.00065 0.0
          0.0078 0.00065 0.0
          0.0065 0.00065 0.0
          0.0052 0.00065 0.0
          0.0039 0.00065 0.0
          0.0026 0.00065 0.0
          0.0013 0.00065 0.0
          0 0.00065 0.0
          0.039 -0.00065 0.0
          0.0377 -0.00065 0.0
          0.0364 -0.00065 0.0
          0.0351 -0.00065 0.0
          0.0338 -0.00065 0.0
          0.0325 -0.00065 0.0
          0.0312 -0.00065 0.0
          0.0299 -0.00065 0.0
          0.0286 -0.00065 0.0
          0.0273 -0.00065 0.0
          0.026 -0.00065 0.0
          0.0247 -0.00065 0.0
          0.0234 -0.00065 0.0
          0.0221 -0.00065 0.0
          0.0208 -0.00065 0.0
          0.0195 -0.00065 0.0
          0.0182 -0.00065 0.0
          0.0169 -0.00065 0.0
          0.0156 -0.00065 0.0
          0.0143 -0.00065 0.0
          0.013 -0.00065 0.0
          0.0117 -0.00065 0.0
          0.0104 -0.00065 0.0
          0.0091 -0.00065 0.0
          0.0078 -0.00065 0.0
          0.0065 -0.00065 0.0
          0.0052 -0.00065 0.0
          0.0039 -0.00065 0.0
          0.0026 -0.00065 0.0
          0.0013 -0.00065 0.0
          0 -0.00065 0.0
          0.039 -0.00195 0.0
          0.0377 -0.00195 0.0
          0.0364 -0.00195 0.0
          0.0351 -0.00195 0.0
          0.0338 -0.00195 0.0
          0.0325 -0.00195 0.0
          0.0312 -0.00195 0.0
          0.0299 -0.00195 0.0
          0.0286 -0.00195 0.0
          0.0273 -0.00195 0.0
          0.026 -0.00195 0.0
          0.0247 -0.00195 0.0
          0.0234 -0.00195 0.0
          0.0221 -0.00195 0.0
          0.0208 -0.00195 0.0
          0.0195 -0.00195 0.0
          0.0182 -0.00195 0.0
          0.0169 -0.00195 0.0
          0.0156 -0.00195 0.0
          0.0143 -0.00195 0.0
          0.013 -0.00195 0.0
          0.0117 -0.00195 0.0
          0.0104 -0.00195 0.0
          0.0091 -0.00195 0.0
          0.0078 -0.00195 0.0
          0.0065 -0.00195 0.0
          0.0052 -0.00195 0.0
          0.0039 -0.00195 0.0
          0.0026 -0.00195 0.0
          0.0013 -0.00195 0.0
          0 -0.00195 0.0
          0.039 -0.00325 0.0
          0.0377 -0.00325 0.0
          0.0364 -0.00325 0.0
          0.0351 -0.00325 0.0
          0.0338 -0.00325 0.0
          0.0325 -0.00325 0.0
          0.0312 -0.00325 0.0
          0.0299 -0.00325 0.0
          0.0286 -0.00325 0.0
          0.0273 -0.00325 0.0
          0.026 -0.00325 0.0
          0.0247 -0.00325 0.0
          0.0234 -0.00325 0.0
          0.0221 -0.00325 0.0
          0.0208 -0.00325 0.0
          0.0195 -0.00325 0.0
          0.0182 -0.00325 0.0
          0.0169 -0.00325 0.0
          0.0156 -0.00325 0.0
          0.0143 -0.00325 0.0
          0.013 -0.00325 0.0
          0.0117 -0.00325 0.0
          0.0104 -0.00325 0.0
          0.0091 -0.00325 0.0
          0.0078 -0.00325 0.0
          0.0065 -0.00325 0.0
          0.0052 -0.00325 0.0
          0.0039 -0.00325 0.0
          0.0026 -0.00325 0.0
          0.0013 -0.00325 0.0
          0 -0.00325 0.0
          0.039 -0.00455 0.0
          0.0377 -0.00455 0.0
          0.0364 -0.00455 0.0
          0.0351 -0.00455 0.0
          0.0338 -0.00455 0.0
          0.0325 -0.00455 0.0
          0.0312 -0.00455 0.0
          0.0299 -0.00455 0.0
          0.0286 -0.00455 0.0
          0.0273 -0.00455 0.0
          0.026 -0.00455 0.0
          0.0247 -0.00455 0.0
          0.0234 -0.00455 0.0
          0.0221 -0.00455 0.0
          0.0208 -0.00455 0.0
          0.0195 -0.00455 0.0
          0.0182 -0.00455 0.0
          0.0169 -0.00455 0.0
          0.0156 -0.00455 0.0
          0.0143 -0.00455 0.0
          0.013 -0.00455 0.0
          0.0117 -0.00455 0.0
          0.0104 -0.00455 0.0
          0.0091 -0.00455 0.0
          0.0078 -0.00455 0.0
          0.0065 -0.00455 0.0
          0.0052 -0.00455 0.0
          0.0039 -0.00455 0.0
          0.0026 -0.00455 0.0
          0.0013 -0.00455 0.0
          0 -0.00455 0.0
          0.039 -0.00585 0.0
          0.0377 -0.00585 0.0
          0.0364 -0.00585 0.0
          0.0351 -0.00585 0.0
          0.0338 -0.00585 0.0
          0.0325 -0.00585 0.0
          0.0312 -0.00585 0.0
          0.0299 -0.00585 0.0
          0.0286 -0.00585 0.0
          0.0273 -0.00585 0.0
          0.026 -0.00585 0.0
          0.0247 -0.00585 0.0
          0.0234 -0.00585 0.0
          0.0221 -0.00585 0.0
          0.0208 -0.00585 0.0
          0.0195 -0.00585 0.0
          0.0182 -0.00585 0.0
          0.0169 -0.00585 0.0
          0.0156 -0.00585 0.0
          0.0143 -0.00585 0.0
          0.013 -0.00585 0.0
          0.0117 -0.00585 0.0
          0.0104 -0.00585 0.0
          0.0091 -0.00585 0.0
          0.0078 -0.00585 0.0
          0.0065 -0.00585 0.0
          0.0052 -0.00585 0.0
          0.0039 -0.00585 0.0
          0.0026 -0.00585 0.0
          0.0013 -0.00585 0.0
          0 -0.00585 0.0
          0.039 -0.00715 0.0
          0.0377 -0.00715 0.0
          0.0364 -0.00715 0.0
          0.0351 -0.00715 0.0
          0.0338 -0.00715 0.0
          0.0325 -0.00715 0.0
          0.0312 -0.00715 0.0
          0.0299 -0.00715 0.0
          0.0286 -0.00715 0.0
          0.0273 -0.00715 0.0
          0.026 -0.00715 0.0
          0.0247 -0.00715 0.0
          0.0234 -0.00715 0.0
          0.0221 -0.00715 0.0
          0.0208 -0.00715 0.0
          0.0195 -0.00715 0.0
          0.0182 -0.00715 0.0
          0.0169 -0.00715 0.0
          0.0156 -0.00715 0.0
          0.0143 -0.00715 0.0
          0.013 -0.00715 0.0
          0.0117 -0.00715 0.0
          0.0104 -0.00715 0.0
          0.0091 -0.00715 0.0
          0.0078 -0.00715 0.0
          0.0065 -0.00715 0.0
          0.0052 -0.00715 0.0
          0.0039 -0.00715 0.0
          0.0026 -0.00715 0.0
          0.0013 -0.00715 0.0
          0 -0.00715 0.0
          0.039 -0.00845 0.0
          0.0377 -0.00845 0.0
          0.0364 -0.00845 0.0
          0.0351 -0.00845 0.0
          0.0338 -0.00845 0.0
          0.0325 -0.00845 0.0
          0.0312 -0.00845 0.0
          0.0299 -0.00845 0.0
          0.0286 -0.00845 0.0
          0.0273 -0.00845 0.0
          0.026 -0.00845 0.0
          0.0247 -0.00845 0.0
          0.0234 -0.00845 0.0
          0.0221 -0.00845 0.0
          0.0208 -0.00845 0.0
          0.0195 -0.00845 0.0
          0.0182 -0.00845 0.0
          0.0169 -0.00845 0.0
          0.0156 -0.00845 0.0
          0.0143 -0.00845 0.0
          0.013 -0.00845 0.0
          0.0117 -0.00845 0.0
          0.0104 -0.00845 0.0
          0.0091 -0.00845 0.0
          0.0078 -0.00845 0.0
          0.0065 -0.00845 0.0
          0.0052 -0.00845 0.0
          0.0039 -0.00845 0.0
          0.0026 -0.00845 0.0
          0.0013 -0.00845 0.0
          0 -0.00845 0.0
          0.039 -0.00975 0.0
          0.0377 -0.00975 0.0
          0.0364 -0.00975 0.0
          0.0351 -0.00975 0.0
          0.0338 -0.00975 0.0
          0.0325 -0.00975 0.0
          0.0312 -0.00975 0.0
          0.0299 -0.00975 0.0
          0.0286 -0.00975 0.0
          0.0273 -0.00975 0.0
          0.026 -0.00975 0.0
          0.0247 -0.00975 0.0
          0.0234 -0.00975 0.0
          0.0221 -0.00975 0.0
          0.0208 -0.00975 0.0
          0.0195 -0.00975 0.0
          0.0182 -0.00975 0.0
          0.0169 -0.00975 0.0
          0.0156 -0.00975 0.0
          0.0143 -0.00975 0.0
          0.013 -0.00975 0.0
          0.0117 -0.00975 0.0
          0.0104 -0.00975 0.0
          0.0091 -0.00975 0.0
          0.0078 -0.00975 0.0
          0.0065 -0.00975 0.0
          0.0052 -0.00975 0.0
          0.0039 -0.00975 0.0
          0.0026 -0.00975 0.0
          0.0013 -0.00975 0.0
          0 -0.00975 0.0
          0.039 -0.01105 0.0
          0.0377 -0.01105 0.0
          0.0364 -0.01105 0.0
          0.0351 -0.01105 0.0
          0.0338 -0.01105 0.0
          0.0325 -0.01105 0.0
          0.0312 -0.01105 0.0
          0.0299 -0.01105 0.0
          0.0286 -0.01105 0.0
          0.0273 -0.01105 0.0
          0.026 -0.01105 0.0
          0.0247 -0.01105 0.0
          0.0234 -0.01105 0.0
          0.0221 -0.01105 0.0
          0.0208 -0.01105 0.0
          0.0195 -0.01105 0.0
          0.0182 -0.01105 0.0
          0.0169 -0.01105 0.0
          0.0156 -0.01105 0.0
          0.0143 -0.01105 0.0
          0.013 -0.01105 0.0
          0.0117 -0.01105 0.0
          0.0104 -0.01105 0.0
          0.0091 -0.01105 0.0
          0.0078 -0.01105 0.0
          0.0065 -0.01105 0.0
          0.0052 -0.01105 0.0
          0.0039 -0.01105 0.0
          0.0026 -0.01105 0.0
          0.0013 -0.01105 0.0
          0 -0.01105 0.0
          0.039 -0.01235 0.0
          0.0377 -0.01235 0.0
          0.0364 -0.01235 0.0
          0.0351 -0.01235 0.0
          0.0338 -0.01235 0.0
          0.0325 -0.01235 0.0
          0.0312 -0.01235 0.0
          0.0299 -0.01235 0.0
          0.0286 -0.01235 0.0
          0.0273 -0.01235 0.0
          0.026 -0.01235 0.0
          0.0247 -0.01235 0.0
          0.0234 -0.01235 0.0
          0.0221 -0.01235 0.0
          0.0208 -0.01235 0.0
          0.0195 -0.01235 0.0
          0.0182 -0.01235 0.0
          0.0169 -0.01235 0.0
          0.0156 -0.01235 0.0
          0.0143 -0.01235 0.0
          0.013 -0.01235 0.0
          0.0117 -0.01235 0.0
          0.0104 -0.01235 0.0
          0.0091 -0.01235 0.0
          0.0078 -0.01235 0.0
          0.0065 -0.01235 0.0
          0.0052 -0.01235 0.0
          0.0039 -0.01235 0.0
          0.0026 -0.01235 0.0
          0.0013 -0.01235 0.0
          0 -0.01235 0.0
          0.039 -0.01365 0.0
          0.0377 -0.01365 0.0
          0.0364 -0.01365 0.0
          0.0351 -0.01365 0.0
          0.0338 -0.01365 0.0
          0.0325 -0.01365 0.0
          0.0312 -0.01365 0.0
          0.0299 -0.01365 0.0
          0.0286 -0.01365 0.0
          0.0273 -0.01365 0.0
          0.026 -0.01365 0.0
          0.0247 -0.01365 0.0
          0.0234 -0.01365 0.0
          0.0221 -0.01365 0.0
          0.0208 -0.01365 0.0
          0.0195 -0.01365 0.0
          0.0182 -0.01365 0.0
          0.0169 -0.01365 0.0
          0.0156 -0.01365 0.0
          0.0143 -0.01365 0.0
          0.013 -0.01365 0.0
          0.0117 -0.01365 0.0
          0.0104 -0.01365 0.0
          0.0091 -0.01365 0.0
          0.0078 -0.01365 0.0
          0.0065 -0.01365 0.0
          0.0052 -0.01365 0.0
          0.0039 -0.01365 0.0
          0.0026 -0.01365 0.0
          0.0013 -0.01365 0.0
          0 -0.01365 0.0
          0.039 -0.01495 0.0
          0.0377 -0.01495 0.0
          0.0364 -0.01495 0.0
          0.0351 -0.01495 0.0
          0.0338 -0.01495 0.0
          0.0325 -0.01495 0.0
          0.0312 -0.01495 0.0
          0.0299 -0.01495 0.0
          0.0286 -0.01495 0.0
          0.0273 -0.01495 0.0
          0.026 -0.01495 0.0
          0.0247 -0.01495 0.0
          0.0234 -0.01495 0.0
          0.0221 -0.01495 0.0
          0.0208 -0.01495 0.0