<?xml version="1.0"?>
<VTKFile type="UnstructuredGrid" version="0.1" byte_order="LittleEndian">
  <UnstructuredGrid>
    <Piece NumberOfPoints="961" NumberOfCells="900">
      <PointData Scalars="Temperature">
        <DataArray type="Float32" Name="Temperature" format="ascii">
          21.0022
          21.037
          21.0731
          21.1091
          21.1395
          21.1608
          21.1716
          21.1753
          21.1736
          21.1671
          21.1544
          21.1376
          21.1206
          21.1081
          21.1017
          21.1018
          21.1084
          21.1212
          21.1385
          21.1554
          21.1683
          21.175
          21.1767
          21.1734
          21.1635
          21.1441
          21.1168
          21.0852
          21.0548
          21.0271
          21.0016
          21.0359
          21.5957
          22.196
          22.7986
          23.3241
          23.666
          23.8336
          23.8776
          23.86
          23.7559
          23.5479
          23.2507
          22.9608
          22.7469
          22.6463
          22.6482
          22.7525
          22.9706
          23.2648
          23.5659
          23.7765
          23.8823
          23.9017
          23.8622
          23.708
          23.3953
          22.9208
          22.3901
          21.8823
          21.4376
          21.0263
          21.0668
          22.1105
          23.2454
          24.6008
          25.7049
          26.4179
          26.5816
          26.6241
          26.607
          26.5053
          26.0378
          25.3797
          24.6713
          24.2755
          24.0943
          24.0977
          24.286
          24.6897
          25.4079
          26.074
          26.5468
          26.6502
          26.669
          26.6308
          26.4801
          25.8199
          24.8141
          23.605
          22.645
          21.8154
          21.0491
          21.0924
          22.5356
          24.1185
          26.0122
          29.4144
          29.4148
          29.415
          29.4151
          29.4151
          29.415
          29.4147
          27.0442
          26.1195
          25.601
          25.3705
          25.3752
          25.6155
          26.1451
          27.0833
          29.4787
          29.479
          29.479
          29.479
          29.479
          29.4788
          29.4784
          26.2939
          24.6171
          23.282
          22.1342
          21.0684
          21.111
          22.841
          24.7023
          26.9067
          29.4154
          29.4156
          29.4157
          29.4158
          29.4158
          29.4158
          29.4157
          28.1366
          27.1911
          26.6673
          26.4281
          26.4338
          26.6848
          27.2215
          28.1826
          29.4796
          29.4797
          29.4798
          29.4798
          29.4797
          29.4796
          29.4794
          27.2374
          25.3113
          23.7552
          22.3779
          21.0833
          21.1227
          23.0264
          25.023
          27.1628
          29.4173
          29.4175
          29.4176
          29.4177
          29.4177
          29.4177
          29.4176
          28.5898
          27.9151
          27.4684
          27.2568
          27.2632
          27.4877
          27.9482
          28.6378
          29.4816
          29.4816
          29.4817
          29.4816
          29.4816
          29.4815
          29.4814
          27.5351
          25.7153
          24.0636
          22.5457
          21.0937
          21.1291
          23.1233
          25.1627
          27.2671
          29.4203
          29.4205
          29.4206
          29.4207
          29.4207
          29.4207
          29.4207
          28.8573
          28.3799
          28.0449
          27.8776
          27.8843
          28.0652
          28.4142
          28.9062
          29.4846
          29.4846
          29.4846
          29.4846
          29.4845
          29.4845
          29.4844
          27.6703
          25.9149
          24.2445
          22.6504
          21.1003
          21.1322
          23.1685
          25.226
          27.3137
          29.4244
          29.4245
          29.4246
          29.4247
          29.4248
          29.4248
          29.4248
          29.0321
          28.6947
          28.4523
          28.3293
          28.3362
          28.4731
          28.7297
          29.0815
          29.4887
          29.4887
          29.4887
          29.4887
          29.4886
          29.4885
          29.4884
          27.7381
          26.0185
          24.3436
          22.711
          21.1042
          21.1336
          23.1896
          25.2558
          27.3366
          29.4296
          29.4297
          29.4298
          29.4299
          29.4299
          29.4299
          29.4299
          29.1527
          28.9137
          28.7408
          28.6531
          28.6601
          28.7619
          28.9489
          29.2023
          29.4938
          29.4939
          29.4938
          29.4938
          29.4937
          29.4937
          29.4936
          27.7751
          26.0741
          24.3977
          22.7448
          21.1064
          21.1343
          23.2
          25.2709
          27.3497
          29.4358
          29.4359
          29.436
          29.4361
          29.4362
          29.4362
          29.4362
          29.2387
          29.0688
          28.9461
          28.8847
          28.8917
          28.9673
          29.1042
          29.2883
          29.5001
          29.5001
          29.5001
          29.5
          29.5
          29.4999
          29.4998
          27.7971
          26.1053
          24.4278
          22.7636
          21.1076
          21.1347
          23.2058
          25.2799
          27.3589
          29.4431
          29.4433
          29.4434
          29.4434
          29.4435
          29.4435
          29.4435
          29.3016
          29.1803
          29.0933
          29.0507
          29.0578
          29.1145
          29.2157
          29.3512
          29.5074
          29.5074
          29.5074
          29.5073
          29.5073
          29.5072
          29.5071
          27.8119
          26.1242
          24.4453
          22.7744
          21.1083
          21.1349
          23.2097
          25.2866
          27.3669
          29.4515
          29.4517
          29.4518
          29.4518
          29.4519
          29.4519
          29.4519
          29.349
          29.2618
          29.2001
          29.1709
          29.178
          29.2214
          29.2973
          29.3986
          29.5158
          29.5158
          29.5158
          29.5157
          29.5156
          29.5156
          29.5155
          27.8233
          26.1369
          24.4565
          22.7811
          21.1087
          21.1351
          23.213
          25.2924
          27.3747
          29.461
          29.4611
          29.4612
          29.4613
          29.4614
          29.4614
          29.4614
          29.3859
          29.3228
          29.2789
          29.2592
          29.2663
          29.3002
          29.3583
          29.4355
          29.5252
          29.5252
          29.5252
          29.5252
          29.5251
          29.525
          29.5249
          27.8335
          26.1468
          24.4645
          22.7858
          21.109
          21.1353
          23.2161
          25.2983
          27.383
          29.4716
          29.4717
          29.4718
          29.4719
          29.4719
          29.472
          29.472
          29.4158
          29.3698
          29.3385
          29.3255
          29.3326
          29.3598
          29.4052
          29.4655
          29.5358
          29.5358
          29.5358
          29.5357
          29.5356
          29.5355
          29.5354
          27.8434
          26.1556
          24.4713
          22.7896
          21.1093
          21.1355
          23.2194
          25.3044
          27.392
          29.4832
          29.4833
          29.4834
          29.4835
          29.4836
          29.4836
          29.4837
          29.4413
          29.4074
          29.3851
          29.3769
          29.384
          29.4064
          29.4428
          29.4909
          29.5474
          29.5474
          29.5474
          29.5473
          29.5472
          29.5471
          29.547
          27.8537
          26.1643
          24.4777
          22.7931
          21.1095
          21.1357
          23.2229
          25.3111
          27.4017
          29.4959
          29.496
          29.4961
          29.4962
          29.4963
          29.4964
          29.4964
          29.464
          29.4389
          29.4231
          29.4183
          29.4254
          29.4443
          29.4743
          29.5136
          29.5601
          29.5601
          29.5601
          29.56
          29.5599
          29.5598
          29.5597
          27.8649
          26.1736
          24.4846
          22.7969
          21.1097
          21.136
          23.2268
          25.3186
          27.4124
          29.5096
          29.5097
          29.5099
          29.51
          29.5102
          29.5102
          29.5103
          29.4853
          29.4666
          29.4556
          29.4534
          29.4605
          29.4768
          29.502
          29.5348
          29.574
          29.5739
          29.5739
          29.5738
          29.5736
          29.5735
          29.5734
          27.8774
          26.1844
          24.4927
          22.8014
          21.11
          21.1363
          23.2313
          25.327
          27.4242
          29.5244
          29.5245
          29.5247
          29.5249
          29.5251
          29.5252
          29.5253
          29.506
          29.4923
          29.4851
          29.4848
          29.4919
          29.5063
          29.5277
          29.5555
          29.5889
          29.5889
          29.5887
          29.5886
          29.5884
          29.5882
          29.5881
          27.8919
          26.1976
          24.503
          22.8072
          21.1104
          21.1366
          23.237
          25.337
          27.4375
          29.5402
          29.5404
          29.5406
          29.5409
          29.5411
          29.5413
          29.5414
          29.5269
          29.5175
          29.5133
          29.5147
          29.5218
          29.5345
          29.5528
          29.5764
          29.605
          29.6049
          29.6047
          29.6045
          29.6042
          29.604
          29.6039
          27.9093
          26.215
          24.5175
          22.8157
          21.1109
          21.1372
          23.2447
          25.3502
          27.4533
          29.5569
          29.5571
          29.5575
          29.5579
          29.5583
          29.5586
          29.5587
          29.5487
          29.5431
          29.5418
          29.5447
          29.5518
          29.563
          29.5784
          29.5981
          29.6222
          29.6221
          29.6219
          29.6215
          29.6211
          29.6208
          29.6206
          27.9319
          26.24
          24.5394
          22.8289
          21.1118
          21.1377
          23.2572
          25.3696
          27.474
          29.5746
          29.5748
          29.5754
          29.576
          29.5767
          29.5771
          29.5773
          29.572
          29.5704
          29.572
          29.5764
          29.5835
          29.5931
          29.6056
          29.6213
          29.6408
          29.6406
          29.6402
          29.6395
          29.6389
          29.6384
          29.6382
          27.9633
          26.279
          24.5755
          22.8513
          21.113
          21.1404
          23.2792
          25.403
          27.5044
          29.5929
          29.5933
          29.5941
          29.5952
          29.5963
          29.5971
          29.5973
          29.5974
          29.6004
          29.6053
          29.6114
          29.6185
          29.6264
          29.6356
          29.6467
          29.6607
          29.6604
          29.6597
          29.6587
          29.6576
          29.6568
          29.6565
          28.0108
          26.3439
          24.6381
          22.8902
          21.1168
          21.1381
          23.3258
          25.4663
          27.5565
          29.6118
          29.6124
          29.6137
          29.6155
          29.6172
          29.6186
          29.6191
          29.6259
          29.6345
          29.6434
          29.6515
          29.6585
          29.6644
          29.6696
          29.6751
          29.6824
          29.6819
          29.6806
          29.6788
          29.6771
          29.6759
          29.6753
          28.0874
          26.4574
          24.7506
          22.9645
          21.1161
          21.1687
          23.4143
          25.6014
          27.6551
          29.6308
          29.6316
          29.6338
          29.6367
          29.6398
          29.6421
          29.6429
          29.6586
          29.6744
          29.6882
          29.6988
          29.7057
          29.7091
          29.7094
          29.7077
          29.7061
          29.7053
          29.703
          29.7
          29.6972
          29.6951
          29.6943
          28.2161
          26.6595
          24.9634
          23.0952
          21.1495
          21.0766
          23.6643
          25.8783
          27.8597
          29.6493
          29.6506
          29.654
          29.6589
          29.6641
          29.6682
          29.6698
          29.6975
          29.7225
          29.7422
          29.7556
          29.7626
          29.763
          29.7573
          29.7463
          29.7328
          29.7313
          29.7273
          29.7222
          29.7174
          29.714
          29.7128
          28.4297
          27.0273
          25.3553
          23.4059
          21.0605
          21.5895
          24.0317
          26.5592
          28.2509
          29.6664
          29.6683
          29.6736
          29.6815
          29.6907
          29.6983
          29.7015
          29.7459
          29.7824
          29.8085
          29.8248
          29.8317
          29.8292
          29.8169
          29.7943
          29.7641
          29.761
          29.7537
          29.7448
          29.7371
          29.7318
          29.7299
          28.7595
          27.6533
          26.1935
          23.8532
          21.5811
          19.5715
          26.0718
          27.8491
          28.8789
          29.6807
          29.6836
          29.6917
          29.7036
          29.7186
          29.7354
          29.7411
          29.811
          29.8586
          29.8902
          29.9092
          29.9161
          29.9109
          29.8929
          29.8586
          29.8031
          29.7976
          29.7817
          29.7672
          29.7552
          29.747
          29.7441
          29.2101
          28.5847
          27.6797
          25.9988
          19.5569
          29.6498
          29.6619
          29.6714
          29.6806
          29.6887
          29.6952
          29.707
          29.7237
          29.7456
          29.7731
          29.8173
          29.904
          29.9546
          29.9901
          30.0112
          30.0182
          30.011
          29.9889
          29.9509
          29.8755
          29.8354
          29.8094
          29.7878
          29.7709
          29.7586
          29.7515
          29.7422
          29.7321
          29.7224
          29.7128
          29.7006
          29.6546
          29.6631
          29.6719
          29.6812
          29.6911
          29.7031
          29.7186
          29.7397
          29.7678
          29.8058
          29.8569
          29.9123
          29.9627
          29.9978
          30.0188
          30.0258
          30.0187
          29.9974
          29.9603
          29.9153
          29.8701
          29.8335
          29.8049
          29.7829
          29.7665
          29.7536
          29.7427
          29.7324
          29.7229
          29.7139
          29.7054
          29.6599
          29.6653
          29.6729
          29.6823
          29.6936
          29.7076
          29.7259
          29.75
          29.7822
          29.8253
          29.8811
          29.939
          29.9861
          30.0206
          30.0414
          30.0484
          30.0417
          30.0215
          29.9891
          29.947
          29.8972
          29.8506
          29.8162
          29.7906
          29.7712
          29.756
          29.7436
          29.7329
          29.7237
          29.7162
          29.7107
          29.6638
          29.6663
          29.6733
          29.6828
          29.6945
          29.7092
          29.7283
          29.7536
          29.7871
          29.8317
          29.8927
          29.9548
          30.0017
          30.0357
          30.0564
          30.0635
          30.0569
          30.0374
          30.006
          29.9642
          29.9093
          29.8568
          29.8202
          29.7932
          29.7728
          29.7569
          29.744
          29.7332
          29.7241
          29.7171
          29.7146
        </DataArray>
      </PointData>
      <CellData>
      </CellData>
      <Points>
        <DataArray type="Float32" NumberOfComponents="3" format="ascii">
          0.039 0.00195 0.0
          0.0377 0.00195 0.0
          0.0364 0.00195 0.0
          0.0351 0.00195 0.0
          0.0338 0.00195 0.0
          0.0325 0.00195 0.0
          0.0312 0.00195 0.0
          0.0299 0.00195 0.0
          0.0286 0.00195 0.0
          0.0273 0.00195 0.0
          0.026 0.00195 0.0
          0.0247 0.00195 0.0
          0.0234 0.00195 0.0
          0.0221 0.00195 0.0
          0.0208 0.00195 0.0
          0.0195 0.00195 0.0
          0.0182 0.00195 0.0
          0.0169 0.00195 0.0
          0.0156 0.00195 0.0
          0.0143 0.00195 0.0
          0.013 0.00195 0.0
          0.0117 0.00195 0.0
          0.0104 0.00195 0.0
          0.0091 0.00195 0.0
          0.0078 0.00195 0.0
          0.0065 0.00195 0.0
          0.0052 0.00195 0.0
          0.0039 0.00195 0.0
          0.0026 0.00195 0.0
          0.0013 0.00195 0.0
          0 0.00195 0.0
          0.039 0.00065 0.0
          0.0377 0.00065 0.0
          0.0364 0.00065 0.0
          0.0351 0.00065 0.0
          0.0338 0.00065 0.0
          0.0325 0.00065 0.0
          0.0312 0.00065 0.0
          0.0299 0.00065 0.0
          0.0286 0.00065 0.0
          0.0273 0.00065 0.0
          0.026 0.00065 0.0
          0.0247 0.00065 0.0
          0.0234 0.00065 0.0
          0.0221 0.00065 0.0
          0.0208 0.00065 0.0
          0.0195 0.00065 0.0
          0.0182 0.00065 0.0
          0.0169 0.00065 0.0
          0.0156 0.00065 0.0
          0.0143 0.00065 0.0
          0.013 0.00065 0.0
          0.0117 0.00065 0.0
          0.0104 0.00065 0.0
          0.0091 0.00065 0.0
          0.0078 0.00065 0.0
          0.0065 0.00065 0.0
          0.0052 0.00065 0.0
          0.0039 0.00065 0.0
          0.0026 0.00065 0.0
          0.0013 0.00065 0.0
          0 0.00065 0.0
          0.039 -0.00065 0.0
          0.0377 -0.00065 0.0
          0.0364 -0.00065 0.0
          0.0351 -0.00065 0.0
          0.0338 -0.00065 0.0
          0.0325 -0.00065 0.0
          0.0312 -0.00065 0.0
          0.0299 -0.00065 0.0
          0.0286 -0.00065 0.0
          0.0273 -0.00065 0.0
          0.026 -0.00065 0.0
          0.0247 -0.00065 0.0
          0.0234 -0.00065 0.0
          0.0221 -0.00065 0.0
          0.0208 -0.00065 0.0
          0.0195 -0.00065 0.0
          0.0182 -0.00065 0.0
          0.0169 -0.00065 0.0
          0.0156 -0.00065 0.0
          0.0143 -0.00065 0.0
          0.013 -0.00065 0.0
          0.0117 -0.00065 0.0
          0.0104 -0.00065 0.0
          0.0091 -0.00065 0.0
          0.0078 -0.00065 0.0
          0.0065 -0.00065 0.0
          0.0052 -0.00065 0.0
          0.0039 -0.00065 0.0
          0.0026 -0.00065 0.0
          0.0013 -0.00065 0.0
          0 -0.00065 0.0
          0.039 -0.00195 0.0
          0.0377 -0.00195 0.0
          0.0364 -0.00195 0.0
          0.0351 -0.00195 0.0
          0.0338 -0.00195 0.0
          0.0325 -0.00195 0.0
          0.0312 -0.00195 0.0
          0.0299 -0.00195 0.0
          0.0286 -0.00195 0.0
          0.0273 -0.00195 0.0
          0.026 -0.00195 0.0
          0.0247 -0.00195 0.0
          0.0234 -0.00195 0.0
          0.0221 -0.00195 0.0
          0.0208 -0.00195 0.0
          0.0195 -0.00195 0.0
          0.0182 -0.00195 0.0
          0.0169 -0.00195 0.0
          0.0156 -0.00195 0.0
          0.0143 -0.00195 0.0
          0.013 -0.00195 0.0
          0.0117 -0.00195 0.0
          0.0104 -0.00195 0.0
          0.0091 -0.00195 0.0
          0.0078 -0.00195 0.0
          0.0065 -0.00195 0.0
          0.0052 -0.00195 0.0
          0.0039 -0.00195 0.0
          0.0026 -0.00195 0.0
          0.0013 -0.00195 0.0
          0 -0.00195 0.0
          0.039 -0.00325 0.0
          0.0377 -0.00325 0.0
          0.0364 -0.00325 0.0
          0.0351 -0.00325 0.0
          0.0338 -0.00325 0.0
          0.0325 -0.00325 0.0
          0.0312 -0.00325 0.0
          0.0299 -0.00325 0.0
          0.0286 -0.00325 0.0
          0.0273 -0.00325 0.0
          0.026 -0.00325 0.0
          0.0247 -0.00325 0.0
          0.0234 -0.00325 0.0
          0.0221 -0.00325 0.0
          0.0208 -0.00325 0.0
          0.0195 -0.00325 0.0
          0.0182 -0.00325 0.0
          0.0169 -0.00325 0.0
          0.0156 -0.00325 0.0
          0.0143 -0.00325 0.0
          0.013 -0.00325 0.0
          0.0117 -0.00325 0.0
          0.0104 -0.00325 0.0
          0.0091 -0.00325 0.0
          0.0078 -0.00325 0.0
          0.0065 -0.00325 0.0
          0.0052 -0.00325 0.0
          0.0039 -0.00325 0.0
          0.0026 -0.00325 0.0
          0.0013 -0.00325 0.0
          0 -0.00325 0.0
          0.039 -0.00455 0.0
          0.0377 -0.00455 0.0
          0.0364 -0.00455 0.0
          0.0351 -0.00455 0.0
          0.0338 -0.00455 0.0
          0.0325 -0.00455 0.0
          0.0312 -0.00455 0.0
          0.0299 -0.00455 0.0
          0.0286 -0.00455 0.0
          0.0273 -0.00455 0.0
          0.026 -0.00455 0.0
          0.0247 -0.00455 0.0
          0.0234 -0.00455 0.0
          0.0221 -0.00455 0.0
          0.0208 -0.00455 0.0
          0.0195 -0.00455 0.0
          0.0182 -0.00455 0.0
          0.0169 -0.00455 0.0
          0.0156 -0.00455 0.0
          0.0143 -0.00455 0.0
          0.013 -0.00455 0.0
          0.0117 -0.00455 0.0
          0.0104 -0.00455 0.0
          0.0091 -0.00455 0.0
          0.0078 -0.00455 0.0
          0.0065 -0.00455 0.0
          0.0052 -0.00455 0.0
          0.0039 -0.00455 0.0
          0.0026 -0.00455 0.0
          0.0013 -0.00455 0.0
          0 -0.00455 0.0
          0.039 -0.00585 0.0
          0.0377 -0.00585 0.0
          0.0364 -0.00585 0.0
          0.0351 -0.00585 0.0
          0.0338 -0.00585 0.0
          0.0325 -0.00585 0.0
          0.0312 -0.00585 0.0
          0.0299 -0.00585 0.0
          0.0286 -0.00585 0.0
          0.0273 -0.00585 0.0
          0.026 -0.00585 0.0
          0.0247 -0.00585 0.0
          0.0234 -0.00585 0.0
          0.0221 -0.00585 0.0
          0.0208 -0.00585 0.0
          0.0195 -0.00585 0.0
          0.0182 -0.00585 0.0
          0.0169 -0.00585 0.0
          0.0156 -0.00585 0.0
          0.0143 -0.00585 0.0
          0.013 -0.00585 0.0
          0.0117 -0.00585 0.0
          0.0104 -0.00585 0.0
          0.0091 -0.00585 0.0
          0.0078 -0.00585 0.0
          0.0065 -0.00585 0.0
          0.0052 -0.00585 0.0
          0.0039 -0.00585 0.0
          0.0026 -0.00585 0.0
          0.0013 -0.00585 0.0
          0 -0.00585 0.0
          0.039 -0.00715 0.0
          0.0377 -0.00715 0.0
          0.0364 -0.00715 0.0
          0.0351 -0.00715 0.0
          0.0338 -0.00715 0.0
          0.0325 -0.00715 0.0
          0.0312 -0.00715 0.0
          0.0299 -0.00715 0.0
          0.0286 -0.00715 0.0
          0.0273 -0.00715 0.0
          0.026 -0.00715 0.0
          0.0247 -0.00715 0.0
          0.0234 -0.00715 0.0
          0.0221 -0.00715 0.0
          0.0208 -0.00715 0.0
          0.0195 -0.00715 0.0
          0.0182 -0.00715 0.0
          0.0169 -0.00715 0.0
          0.0156 -0.00715 0.0
          0.0143 -0.00715 0.0
          0.013 -0.00715 0.0
          0.0117 -0.00715 0.0
          0.0104 -0.00715 0.0
          0.0091 -0.00715 0.0
          0.0078 -0.00715 0.0
          0.0065 -0.00715 0.0
          0.0052 -0.00715 0.0
          0.0039 -0.00715 0.0
          0.0026 -0.00715 0.0
          0.0013 -0.00715 0.0
          0 -0.00715 0.0
          0.039 -0.00845 0.0
          0.0377 -0.00845 0.0
          0.0364 -0.00845 0.0
          0.0351 -0.00845 0.0
          0.0338 -0.00845 0.0
          0.0325 -0.00845 0.0
          0.0312 -0.00845 0.0
          0.0299 -0.00845 0.0
          0.0286 -0.00845 0.0
          0.0273 -0.00845 0.0
          0.026 -0.00845 0.0
          0.0247 -0.00845 0.0
          0.0234 -0.00845 0.0
          0.0221 -0.00845 0.0
          0.0208 -0.00845 0.0
          0.0195 -0.00845 0.0
          0.0182 -0.00845 0.0
          0.0169 -0.00845 0.0
          0.0156 -0.00845 0.0
          0.0143 -0.00845 0.0
          0.013 -0.00845 0.0
          0.0117 -0.00845 0.0
          0.0104 -0.00845 0.0
          0.0091 -0.00845 0.0
          0.0078 -0.00845 0.0
          0.0065 -0.00845 0.0
          0.0052 -0.00845 0.0
          0.0039 -0.00845 0.0
          0.0026 -0.00845 0.0
          0.0013 -0.00845 0.0
          0 -0.00845 0.0
          0.039 -0.00975 0.0
          0.0377 -0.00975 0.0
          0.0364 -0.00975 0.0
          0.0351 -0.00975 0.0
          0.0338 -0.00975 0.0
          0.0325 -0.00975 0.0
          0.0312 -0.00975 0.0
          0.0299 -0.00975 0.0
          0.0286 -0.00975 0.0
          0.0273 -0.00975 0.0
          0.026 -0.00975 0.0
          0.0247 -0.00975 0.0
          0.0234 -0.00975 0.0
          0.0221 -0.00975 0.0
          0.0208 -0.00975 0.0
          0.0195 -0.00975 0.0
          0.0182 -0.00975 0.0
          0.0169 -0.00975 0.0
          0.0156 -0.00975 0.0
          0.0143 -0.00975 0.0
          0.013 -0.00975 0.0
          0.0117 -0.00975 0.0
          0.0104 -0.00975 0.0
          0.0091 -0.00975 0.0
          0.0078 -0.00975 0.0
          0.0065 -0.00975 0.0
          0.0052 -0.00975 0.0
          0.0039 -0.00975 0.0
          0.0026 -0.00975 0.0
          0.0013 -0.00975 0.0
          0 -0.00975 0.0
          0.039 -0.01105 0.0
          0.0377 -0.01105 0.0
          0.0364 -0.01105 0.0
          0.0351 -0.01105 0.0
          0.0338 -0.01105 0.0
          0.0325 -0.01105 0.0
          0.0312 -0.01105 0.0
          0.0299 -0.01105 0.0
          0.0286 -0.01105 0.0
          0.0273 -0.01105 0.0
          0.026 -0.01105 0.0
          0.0247 -0.01105 0.0
          0.0234 -0.01105 0.0
          0.0221 -0.01105 0.0
          0.0208 -0.01105 0.0
          0.0195 -0.01105 0.0
          0.0182 -0.01105 0.0
          0.0169 -0.01105 0.0
          0.0156 -0.01105 0.0
          0.0143 -0.01105 0.0
          0.013 -0.01105 0.0
          0.0117 -0.01105 0.0
          0.0104 -0.01105 0.0
          0.0091 -0.01105 0.0
          0.0078 -0.01105 0.0
          0.0065 -0.01105 0.0
          0.0052 -0.01105 0.0
          0.0039 -0.01105 0.0
          0.0026 -0.01105 0.0
          0.0013 -0.01105 0.0
          0 -0.01105 0.0
          0.039 -0.01235 0.0
          0.0377 -0.01235 0.0
          0.0364 -0.01235 0.0
          0.0351 -0.01235 0.0
          0.0338 -0.01235 0.0
          0.0325 -0.01235 0.0
          0.0312 -0.01235 0.0
          0.0299 -0.01235 0.0
          0.0286 -0.01235 0.0
          0.0273 -0.01235 0.0
          0.026 -0.01235 0.0
          0.0247 -0.01235 0.0
          0.0234 -0.01235 0.0
          0.0221 -0.01235 0.0
          0.0208 -0.01235 0.0
          0.0195 -0.01235 0.0
          0.0182 -0.01235 0.0
          0.0169 -0.01235 0.0
          0.0156 -0.01235 0.0
          0.0143 -0.01235 0.0
          0.013 -0.01235 0.0
          0.0117 -0.01235 0.0
          0.0104 -0.01235 0.0
          0.0091 -0.01235 0.0
          0.0078 -0.01235 0.0
          0.0065 -0.01235 0.0
          0.0052 -0.01235 0.0
          0.0039 -0.01235 0.0
          0.0026 -0.01235 0.0
          0.0013 -0.01235 0.0
          0 -0.01235 0.0
          0.039 -0.01365 0.0
          0.0377 -0.01365 0.0
          0.0364 -0.01365 0.0
          0.0351 -0.01365 0.0
          0.0338 -0.01365 0.0
          0.0325 -0.01365 0.0
          0.0312 -0.01365 0.0
          0.0299 -0.01365 0.0
          0.0286 -0.01365 0.0
          0.0273 -0.01365 0.0
          0.026 -0.01365 0.0
          0.0247 -0.01365 0.0
          0.0234 -0.01365 0.0
          0.0221 -0.01365 0.0
          0.0208 -0.01365 0.0
          0.0195 -0.01365 0.0
          0.0182 -0.01365 0.0
          0.0169 -0.01365 0.0
          0.0156 -0.01365 0.0
          0.0143 -0.01365 0.0
          0.013 -0.01365 0.0
          0.0117 -0.01365 0.0
          0.0104 -0.01365 0.0
          0.0091 -0.01365 0.0
          0.0078 -0.01365 0.0
          0.0065 -0.01365 0.0
          0.0052 -0.01365 0.0
          0.0039 -0.01365 0.0
          0.0026 -0.01365 0.0
          0.0013 -0.01365 0.0
          0 -0.01365 0.0
          0.039 -0.01495 0.0
          0.0377 -0.01495 0.0
          0.0364 -0.01495 0.0
          0.0351 -0.01495 0.0
          0.0338 -0.01495 0.0
          0.0325 -0.01495 0.0
          0.0312 -0.01495 0.0
          0.0299 -0.01495 0.0
          0.0286 -0.01495 0.0
          0.0273 -0.01495 0.0
          0.026 -0.01495 0.0
          0.0247 -0.01495 0.0
          0.0234 -0.01495 0.0
          0.0221 -0.01495 0.0