<?xml version="1.0"?>
<VTKFile type="UnstructuredGrid" version="0.1" byte_order="LittleEndian">
  <UnstructuredGrid>
    <Piece NumberOfPoints="961" NumberOfCells="900">
      <PointData Scalars="Temperature">
        <DataArray type="Float32" Name="Temperature" format="ascii">
          21.0011
          21.0192
          21.038
          21.0567
          21.0725
          21.0836
          21.0892
          21.0911
          21.0902
          21.0868
          21.0802
          21.0715
          21.0626
          21.0561
          21.0528
          21.0529
          21.0564
          21.0632
          21.0723
          21.0813
          21.0881
          21.0915
          21.0925
          21.0907
          21.0856
          21.0754
          21.0611
          21.0445
          21.0286
          21.0141
          21.0009
          21.0186
          21.3094
          21.6214
          21.9348
          22.2082
          22.3861
          22.4733
          22.4962
          22.4869
          22.4327
          22.3242
          22.1692
          22.0181
          21.9068
          21.8549
          21.8567
          21.9123
          22.0277
          22.1829
          22.3416
          22.4526
          22.5083
          22.5186
          22.4979
          22.4171
          22.2533
          22.0048
          21.7269
          21.4612
          21.2287
          21.0138
          21.0347
          21.5769
          22.1669
          22.8721
          23.4467
          23.818
          23.9032
          23.9253
          23.9164
          23.8633
          23.6193
          23.2759
          22.9064
          22.7004
          22.6069
          22.6102
          22.7106
          22.9244
          23.3034
          23.6545
          23.9036
          23.9581
          23.9681
          23.948
          23.8691
          23.523
          22.9958
          22.3623
          21.8599
          21.4261
          21.0257
          21.048
          21.7979
          22.6209
          23.6065
          25.3793
          25.3795
          25.3796
          25.3797
          25.3797
          25.3796
          25.3795
          24.1416
          23.6589
          23.3888
          23.2698
          23.2744
          23.403
          23.6838
          24.1797
          25.4418
          25.442
          25.442
          25.442
          25.442
          25.4419
          25.4417
          23.7707
          22.8919
          22.193
          21.5928
          21.0357
          21.0577
          21.9568
          22.9247
          24.0723
          25.3801
          25.3802
          25.3803
          25.3803
          25.3803
          25.3803
          25.3803
          24.7102
          24.2159
          23.9429
          23.8195
          23.8251
          23.9599
          24.2456
          24.7551
          25.4426
          25.4427
          25.4427
          25.4427
          25.4427
          25.4426
          25.4425
          24.2652
          23.2554
          22.4406
          21.7203
          21.0435
          21.0638
          22.0533
          23.0919
          24.2061
          25.382
          25.3821
          25.3821
          25.3822
          25.3822
          25.3822
          25.3821
          24.9465
          24.5927
          24.3596
          24.2506
          24.2568
          24.3784
          24.625
          24.9933
          25.4445
          25.4445
          25.4445
          25.4445
          25.4445
          25.4444
          25.4444
          24.4217
          23.4673
          22.6023
          21.8082
          21.049
          21.0671
          22.1041
          23.1653
          24.2615
          25.385
          25.385
          25.3851
          25.3851
          25.3851
          25.3851
          25.3851
          25.0867
          24.8353
          24.6601
          24.5742
          24.5807
          24.6799
          24.8688
          25.1344
          25.4475
          25.4475
          25.4475
          25.4475
          25.4474
          25.4474
          25.4473
          24.4936
          23.5725
          22.6974
          21.8632
          21.0524
          21.0688
          22.1281
          23.1992
          24.2871
          25.3891
          25.3891
          25.3892
          25.3892
          25.3893
          25.3893
          25.3893
          25.1793
          25.0005
          24.8733
          24.8104
          24.8171
          24.8936
          25.0346
          25.2274
          25.4516
          25.4516
          25.4516
          25.4516
          25.4515
          25.4515
          25.4515
          24.5306
          23.6278
          22.75
          21.8953
          21.0545
          21.0695
          22.1397
          23.2159
          24.301
          25.3943
          25.3944
          25.3944
          25.3945
          25.3945
          25.3945
          25.3945
          25.2443
          25.1165
          25.0253
          24.9807
          24.9876
          25.0459
          25.1509
          25.2927
          25.4568
          25.4568
          25.4568
          25.4568
          25.4568
          25.4567
          25.4567
          24.552
          23.6584
          22.7793
          21.9134
          21.0557
          21.0699
          22.146
          23.2253
          24.3101
          25.4007
          25.4008
          25.4008
          25.4008
          25.4009
          25.4009
          25.4009
          25.292
          25.1999
          25.1348
          25.1038
          25.1107
          25.1554
          25.2344
          25.3404
          25.4632
          25.4632
          25.4632
          25.4632
          25.4631
          25.4631
          25.4631
          24.566
          23.6766
          22.7962
          21.9239
          21.0564
          21.0702
          22.1499
          23.2319
          24.3177
          25.4082
          25.4082
          25.4083
          25.4083
          25.4084
          25.4084
          25.4084
          25.3283
          25.2614
          25.2147
          25.1935
          25.2004
          25.2354
          25.2959
          25.3767
          25.4707
          25.4707
          25.4707
          25.4707
          25.4706
          25.4706
          25.4705
          24.5766
          23.6887
          22.8069
          21.9303
          21.0568
          21.0704
          22.1531
          23.2375
          24.3251
          25.4168
          25.4169
          25.4169
          25.417
          25.417
          25.417
          25.417
          25.3571
          25.3079
          25.2743
          25.26
          25.2669
          25.2951
          25.3425
          25.4055
          25.4793
          25.4793
          25.4793
          25.4793
          25.4793
          25.4792
          25.4792
          24.586
          23.6979
          22.8145
          21.9347
          21.0571
          21.0706
          22.156
          23.243
          24.3328
          25.4266
          25.4266
          25.4267
          25.4267
          25.4268
          25.4268
          25.4268
          25.3811
          25.3444
          25.3201
          25.3107
          25.3176
          25.3408
          25.379
          25.4296
          25.4891
          25.4891
          25.4891
          25.4891
          25.489
          25.489
          25.4889
          24.5951
          23.7059
          22.8206
          21.9382
          21.0573
          21.0708
          22.1591
          23.2488
          24.3412
          25.4374
          25.4375
          25.4376
          25.4376
          25.4377
          25.4377
          25.4377
          25.4021
          25.3743
          25.3566
          25.3507
          25.3576
          25.3773
          25.4089
          25.4506
          25.5
          25.5
          25.5
          25.4999
          25.4999
          25.4998
          25.4998
          24.6046
          23.7138
          22.8263
          21.9413
          21.0575
          21.071
          22.1623
          23.255
          24.3503
          25.4495
          25.4495
          25.4496
          25.4497
          25.4497
          25.4497
          25.4497
          25.4215
          25.4
          25.3871
          25.3837
          25.3907
          25.4078
          25.4346
          25.4699
          25.512
          25.512
          25.512
          25.5119
          25.5119
          25.5118
          25.5118
          24.6148
          23.7219
          22.8321
          21.9443
          21.0577
          21.0712
          22.1659
          23.2618
          24.3603
          25.4626
          25.4626
          25.4627
          25.4628
          25.4629
          25.4629
          25.4629
          25.44
          25.4234
          25.4139
          25.4124
          25.4194
          25.4347
          25.4579
          25.4885
          25.5252
          25.5252
          25.5251
          25.5251
          25.525
          25.5249
          25.5249
          24.6259
          23.7307
          22.8384
          21.9477
          21.0579
          21.0714
          22.1697
          23.2693
          24.3712
          25.4768
          25.4769
          25.477
          25.4771
          25.4772
          25.4772
          25.4773
          25.4586
          25.4455
          25.4388
          25.4388
          25.4457
          25.4595
          25.4801
          25.507
          25.5395
          25.5395
          25.5394
          25.5394
          25.5393
          25.5392
          25.5391
          24.6381
          23.7406
          22.8455
          21.9515
          21.0581
          21.0717
          22.1741
          23.2775
          24.383
          25.4921
          25.4922
          25.4923
          25.4925
          25.4926
          25.4927
          25.4928
          25.4775
          25.4676
          25.4631
          25.4642
          25.4711
          25.4838
          25.5021
          25.5259
          25.555
          25.555
          25.5549
          25.5547
          25.5546
          25.5545
          25.5544
          24.6517
          23.7522
          22.854
          21.9562
          21.0584
          21.072
          22.1792
          23.2869
          24.3961
          25.5085
          25.5086
          25.5088
          25.509
          25.5093
          25.5094
          25.5095
          25.4975
          25.4903
          25.4879
          25.4901
          25.497
          25.5086
          25.5248
          25.5458
          25.5717
          25.5716
          25.5715
          25.5713
          25.571
          25.5709
          25.5708
          24.6674
          23.7663
          22.8649
          21.9624
          21.0588
          21.0724
          22.1855
          23.2982
          24.4109
          25.5259
          25.526
          25.5263
          25.5267
          25.5271
          25.5273
          25.5274
          25.5188
          25.5145
          25.5142
          25.5175
          25.5244
          25.5349
          25.549
          25.5671
          25.5896
          25.5895
          25.5893
          25.5889
          25.5886
          25.5883
          25.5881
          24.6862
          23.7847
          22.8801
          21.9712
          21.0594
          21.0729
          22.1945
          23.313
          24.4286
          25.5442
          25.5444
          25.5449
          25.5455
          25.5461
          25.5465
          25.5467
          25.5419
          25.5409
          25.543
          25.5477
          25.5546
          25.5637
          25.5754
          25.5902
          25.6088
          25.6087
          25.6083
          25.6077
          25.6071
          25.6067
          25.6065
          24.7102
          23.811
          22.903
          21.9851
          21.0601
          21.0745
          22.2086
          23.3355
          24.4518
          25.5633
          25.5637
          25.5644
          25.5654
          25.5664
          25.5671
          25.5674
          25.5675
          25.5706
          25.5757
          25.5818
          25.5887
          25.5963
          25.6051
          25.6158
          25.6295
          25.6293
          25.6286
          25.6276
          25.6266
          25.6259
          25.6256
          24.7431
          23.8514
          22.9404
          22.0079
          21.0623
          21.0733
          22.2361
          23.3742
          24.4869
          25.5831
          25.5835
          25.5848
          25.5864
          25.5881
          25.5894
          25.5899
          25.5963
          25.6047
          25.6135
          25.6216
          25.6284
          25.6341
          25.6391
          25.6445
          25.6519
          25.6515
          25.6502
          25.6486
          25.647
          25.6458
          25.6453
          24.7919
          23.9181
          23.0048
          22.0499
          21.062
          21.0899
          22.286
          23.4514
          24.5469
          25.603
          25.6037
          25.6057
          25.6085
          25.6114
          25.6136
          25.6145
          25.6295
          25.6449
          25.6584
          25.6689
          25.6757
          25.679
          25.6792
          25.6777
          25.6765
          25.6757
          25.6735
          25.6707
          25.6679
          25.666
          25.6652
          24.869
          24.0328
          23.1234
          22.1224
          21.0802
          21.0406
          22.4226
          23.6048
          24.6639
          25.6226
          25.6237
          25.6269
          25.6316
          25.6366
          25.6406
          25.6421
          25.669
          25.6935
          25.7129
          25.7261
          25.7329
          25.7334
          25.7277
          25.717
          25.7039
          25.7025
          25.6986
          25.6937
          25.6891
          25.686
          25.6848
          24.9918
          24.237
          23.3387
          22.292
          21.0322
          21.3162
          22.6224
          23.9752
          24.8809
          25.6409
          25.6427
          25.6476
          25.6551
          25.6639
          25.6713
          25.6744
          25.718
          25.754
          25.7798
          25.7959
          25.8027
          25.8002
          25.788
          25.7657
          25.736
          25.733
          25.7259
          25.7173
          25.7099
          25.705
          25.7032
          25.1773
          24.5808
          23.7953
          22.5356
          21.3135
          20.2325
          23.7207
          24.6731
          25.2251
          25.6568
          25.6594
          25.6668
          25.6781
          25.6926
          25.709
          25.7147
          25.7838
          25.8311
          25.8624
          25.8812
          25.888
          25.8828
          25.8649
          25.8308
          25.7756
          25.7703
          25.7547
          25.7406
          25.7292
          25.7217
          25.7191
          25.4281
          25.0901
          24.6023
          23.6965
          20.2205
          25.6458
          25.6526
          25.6583
          25.6643
          25.6681
          25.6725
          25.6832
          25.6989
          25.7201
          25.7473
          25.7912
          25.8778
          25.9281
          25.9634
          25.9844
          25.9913
          25.984
          25.962
          25.9241
          25.8487
          25.8086
          25.783
          25.7621
          25.746
          25.7348
          25.7297
          25.7246
          25.7177
          25.7112
          25.7052
          25.6984
          25.6484
          25.6532
          25.6588
          25.6648
          25.672
          25.6817
          25.6956
          25.7156
          25.7428
          25.7802
          25.8309
          25.8861
          25.9362
          25.9711
          25.992
          25.9989
          25.9918
          25.9705
          25.9335
          25.8886
          25.8437
          25.8077
          25.7797
          25.7589
          25.744
          25.7334
          25.7251
          25.7179
          25.7115
          25.7059
          25.701
          25.6513
          25.6545
          25.6595
          25.6662
          25.6749
          25.6869
          25.7034
          25.7263
          25.7576
          25.7999
          25.8553
          25.9128
          25.9596
          25.9939
          26.0146
          26.0215
          26.0148
          25.9946
          25.9624
          25.9204
          25.871
          25.8251
          25.7915
          25.7671
          25.7493
          25.7363
          25.7263
          25.7184
          25.712
          25.7071
          25.7039
          25.6535
          25.6551
          25.6599
          25.6667
          25.676
          25.6886
          25.7061
          25.73
          25.7626
          25.8064
          25.8669
          25.9286
          25.9752
          26.009
          26.0296
          26.0366
          26.03
          26.0105
          25.9793
          25.9377
          25.8833
          25.8314
          25.7957
          25.7699
          25.7512
          25.7373
          25.7268
          25.7186
          25.7122
          25.7076
          25.706
        </DataArray>
      </PointData>
      <CellData>
      </CellData>
      <Points>
        <DataArray type="Float32" NumberOfComponents="3" format="ascii">
          0.039 0.00195 0.0
          0.0377 0.00195 0.0
          0.0364 0.00195 0.0
          0.0351 0.00195 0.0
          0.0338 0.00195 0.0
          0.0325 0.00195 0.0
          0.0312 0.00195 0.0
          0.0299 0.00195 0.0
          0.0286 0.00195 0.0
          0.0273 0.00195 0.0
          0.026 0.00195 0.0
          0.0247 0.00195 0.0
          0.0234 0.00195 0.0
          0.0221 0.00195 0.0
          0.0208 0.00195 0.0
          0.0195 0.00195 0.0
          0.0182 0.00195 0.0
          0.0169 0.00195 0.0
          0.0156 0.00195 0.0
          0.0143 0.00195 0.0
          0.013 0.00195 0.0
          0.0117 0.00195 0.0
          0.0104 0.00195 0.0
          0.0091 0.00195 0.0
          0.0078 0.00195 0.0
          0.0065 0.00195 0.0
          0.0052 0.00195 0.0
          0.0039 0.00195 0.0
          0.0026 0.00195 0.0
          0.0013 0.00195 0.0
          0 0.00195 0.0
          0.039 0.00065 0.0
          0.0377 0.00065 0.0
          0.0364 0.00065 0.0
          0.0351 0.00065 0.0
          0.0338 0.00065 0.0
          0.0325 0.00065 0.0
          0.0312 0.00065 0.0
          0.0299 0.00065 0.0
          0.0286 0.00065 0.0
          0.0273 0.00065 0.0
          0.026 0.00065 0.0
          0.0247 0.00065 0.0
          0.0234 0.00065 0.0
          0.0221 0.00065 0.0
          0.0208 0.00065 0.0
          0.0195 0.00065 0.0
          0.0182 0.00065 0.0
          0.0169 0.00065 0.0
          0.0156 0.00065 0.0
          0.0143 0.00065 0.0
          0.013 0.00065 0.0
          0.0117 0.00065 0.0
          0.0104 0.00065 0.0
          0.0091 0.00065 0.0
          0.0078 0.00065 0.0
          0.0065 0.00065 0.0
          0.0052 0.00065 0.0
          0.0039 0.00065 0.0
          0.0026 0.00065 0.0
          0.0013 0.00065 0.0
          0 0.00065 0.0
          0.039 -0.00065 0.0
          0.0377 -0.00065 0.0
          0.0364 -0.00065 0.0
          0.0351 -0.00065 0.0
          0.0338 -0.00065 0.0
          0.0325 -0.00065 0.0
          0.0312 -0.00065 0.0
          0.0299 -0.00065 0.0
          0.0286 -0.00065 0.0
          0.0273 -0.00065 0.0
          0.026 -0.00065 0.0
          0.0247 -0.00065 0.0
          0.0234 -0.00065 0.0
          0.0221 -0.00065 0.0
          0.0208 -0.00065 0.0
          0.0195 -0.00065 0.0
          0.0182 -0.00065 0.0
          0.0169 -0.00065 0.0
          0.0156 -0.00065 0.0
          0.0143 -0.00065 0.0
          0.013 -0.00065 0.0
          0.0117 -0.00065 0.0
          0.0104 -0.00065 0.0
          0.0091 -0.00065 0.0
          0.0078 -0.00065 0.0
          0.0065 -0.00065 0.0
          0.0052 -0.00065 0.0
          0.0039 -0.00065 0.0
          0.0026 -0.00065 0.0
          0.0013 -0.00065 0.0
          0 -0.00065 0.0
          0.039 -0.00195 0.0
          0.0377 -0.00195 0.0
          0.0364 -0.00195 0.0
          0.0351 -0.00195 0.0
          0.0338 -0.00195 0.0
          0.0325 -0.00195 0.0
          0.0312 -0.00195 0.0
          0.0299 -0.00195 0.0
          0.0286 -0.00195 0.0
          0.0273 -0.00195 0.0
          0.026 -0.00195 0.0
          0.0247 -0.00195 0.0
          0.0234 -0.00195 0.0
          0.0221 -0.00195 0.0
          0.0208 -0.00195 0.0
          0.0195 -0.00195 0.0
          0.0182 -0.00195 0.0
          0.0169 -0.00195 0.0
          0.0156 -0.00195 0.0
          0.0143 -0.00195 0.0
          0.013 -0.00195 0.0
          0.0117 -0.00195 0.0
          0.0104 -0.00195 0.0
          0.0091 -0.00195 0.0
          0.0078 -0.00195 0.0
          0.0065 -0.00195 0.0
          0.0052 -0.00195 0.0
          0.0039 -0.00195 0.0
          0.0026 -0.00195 0.0
          0.0013 -0.00195 0.0
          0 -0.00195 0.0
          0.039 -0.00325 0.0
          0.0377 -0.00325 0.0
          0.0364 -0.00325 0.0
          0.0351 -0.00325 0.0
          0.0338 -0.00325 0.0
          0.0325 -0.00325 0.0
          0.0312 -0.00325 0.0
          0.0299 -0.00325 0.0
          0.0286 -0.00325 0.0
          0.0273 -0.00325 0.0
          0.026 -0.00325 0.0
          0.0247 -0.00325 0.0
          0.0234 -0.00325 0.0
          0.0221 -0.00325 0.0
          0.0208 -0.00325 0.0
          0.0195 -0.00325 0.0
          0.0182 -0.00325 0.0
          0.0169 -0.00325 0.0
          0.0156 -0.00325 0.0
          0.0143 -0.00325 0.0
          0.013 -0.00325 0.0
          0.0117 -0.00325 0.0
          0.0104 -0.00325 0.0
          0.0091 -0.00325 0.0
          0.0078 -0.00325 0.0
          0.0065 -0.00325 0.0
          0.0052 -0.00325 0.0
          0.0039 -0.00325 0.0
          0.0026 -0.00325 0.0
          0.0013 -0.00325 0.0
          0 -0.00325 0.0
          0.039 -0.00455 0.0
          0.0377 -0.00455 0.0
          0.0364 -0.00455 0.0
          0.0351 -0.00455 0.0
          0.0338 -0.00455 0.0
          0.0325 -0.00455 0.0
          0.0312 -0.00455 0.0
          0.0299 -0.00455 0.0
          0.0286 -0.00455 0.0
          0.0273 -0.00455 0.0
          0.026 -0.00455 0.0
          0.0247 -0.00455 0.0
          0.0234 -0.00455 0.0
          0.0221 -0.00455 0.0
          0.0208 -0.00455 0.0
          0.0195 -0.00455 0.0
          0.0182 -0.00455 0.0
          0.0169 -0.00455 0.0
          0.0156 -0.00455 0.0
          0.0143 -0.00455 0.0
          0.013 -0.00455 0.0
          0.0117 -0.00455 0.0
          0.0104 -0.00455 0.0
          0.0091 -0.00455 0.0
          0.0078 -0.00455 0.0
          0.0065 -0.00455 0.0
          0.0052 -0.00455 0.0
          0.0039 -0.00455 0.0
          0.0026 -0.00455 0.0
          0.0013 -0.00455 0.0
          0 -0.00455 0.0
          0.039 -0.00585 0.0
          0.0377 -0.00585 0.0
          0.0364 -0.00585 0.0
          0.0351 -0.00585 0.0
          0.0338 -0.00585 0.0
          0.0325 -0.00585 0.0
          0.0312 -0.00585 0.0
          0.0299 -0.00585 0.0
          0.0286 -0.00585 0.0
          0.0273 -0.00585 0.0
          0.026 -0.00585 0.0
          0.0247 -0.00585 0.0
          0.0234 -0.00585 0.0
          0.0221 -0.00585 0.0
          0.0208 -0.00585 0.0
          0.0195 -0.00585 0.0
          0.0182 -0.00585 0.0
          0.0169 -0.00585 0.0
          0.0156 -0.00585 0.0
          0.0143 -0.00585 0.0
          0.013 -0.00585 0.0
          0.0117 -0.00585 0.0
          0.0104 -0.00585 0.0
          0.0091 -0.00585 0.0
          0.0078 -0.00585 0.0
          0.0065 -0.00585 0.0
          0.0052 -0.00585 0.0
          0.0039 -0.00585 0.0
          0.0026 -0.00585 0.0
          0.0013 -0.00585 0.0
          0 -0.00585 0.0
          0.039 -0.00715 0.0
          0.0377 -0.00715 0.0
          0.0364 -0.00715 0.0
          0.0351 -0.00715 0.0
          0.0338 -0.00715 0.0
          0.0325 -0.00715 0.0
          0.0312 -0.00715 0.0
          0.0299 -0.00715 0.0
          0.0286 -0.00715 0.0
          0.0273 -0.00715 0.0
          0.026 -0.00715 0.0
          0.0247 -0.00715 0.0
          0.0234 -0.00715 0.0
          0.0221 -0.00715 0.0
          0.0208 -0.00715 0.0
          0.0195 -0.00715 0.0
          0.0182 -0.00715 0.0
          0.0169 -0.00715 0.0
          0.0156 -0.00715 0.0
          0.0143 -0.00715 0.0
          0.013 -0.00715 0.0
          0.0117 -0.00715 0.0
          0.0104 -0.00715 0.0
          0.0091 -0.00715 0.0
          0.0078 -0.00715 0.0
          0.0065 -0.00715 0.0
          0.0052 -0.00715 0.0
          0.0039 -0.00715 0.0
          0.0026 -0.00715 0.0
          0.0013 -0.00715 0.0
          0 -0.00715 0.0
          0.039 -0.00845 0.0
          0.0377 -0.00845 0.0
          0.0364 -0.00845 0.0
          0.0351 -0.00845 0.0
          0.0338 -0.00845 0.0
          0.0325 -0.00845 0.0
          0.0312 -0.00845 0.0
          0.0299 -0.00845 0.0
          0.0286 -0.00845 0.0
          0.0273 -0.00845 0.0
          0.026 -0.00845 0.0
          0.0247 -0.00845 0.0
          0.0234 -0.00845 0.0
          0.0221 -0.00845 0.0
          0.0208 -0.00845 0.0
          0.0195 -0.00845 0.0
          0.0182 -0.00845 0.0
          0.0169 -0.00845 0.0
          0.0156 -0.00845 0.0
          0.0143 -0.00845 0.0
          0.013 -0.00845 0.0
          0.0117 -0.00845 0.0
          0.0104 -0.00845 0.0
          0.0091 -0.00845 0.0
          0.0078 -0.00845 0.0
          0.0065 -0.00845 0.0
          0.0052 -0.00845 0.0
          0.0039 -0.00845 0.0
          0.0026 -0.00845 0.0
          0.0013 -0.00845 0.0
          0 -0.00845 0.0
          0.039 -0.00975 0.0
          0.0377 -0.00975 0.0
          0.0364 -0.00975 0.0
          0.0351 -0.00975 0.0
          0.0338 -0.00975 0.0
          0.0325 -0.00975 0.0
          0.0312 -0.00975 0.0
          0.0299 -0.00975 0.0
          0.0286 -0.00975 0.0
          0.0273 -0.00975 0.0
          0.026 -0.00975 0.0
          0.0247 -0.00975 0.0
          0.0234 -0.00975 0.0
          0.0221 -0.00975 0.0
          0.0208 -0.00975 0.0
          0.0195 -0.00975 0.0
          0.0182 -0.00975 0.0
          0.0169 -0.00975 0.0
          0.0156 -0.00975 0.0
          0.0143 -0.00975 0.0
          0.013 -0.00975 0.0
          0.0117 -0.00975 0.0
          0.0104 -0.00975 0.0
          0.0091 -0.00975 0.0
          0.0078 -0.00975 0.0
          0.0065 -0.00975 0.0
          0.0052 -0.00975 0.0
          0.0039 -0.00975 0.0
          0.0026 -0.00975 0.0
          0.0013 -0.00975 0.0
          0 -0.00975 0.0
          0.039 -0.01105 0.0
          0.0377 -0.01105 0.0
          0.0364 -0.01105 0.0
          0.0351 -0.01105 0.0
          0.0338 -0.01105 0.0
          0.0325 -0.01105 0.0
          0.0312 -0.01105 0.0
          0.0299 -0.01105 0.0
          0.0286 -0.01105 0.0
          0.0273 -0.01105 0.0
          0.026 -0.01105 0.0
          0.0247 -0.01105 0.0
          0.0234 -0.01105 0.0
          0.0221 -0.01105 0.0
          0.0208 -0.01105 0.0
          0.0195 -0.01105 0.0
          0.0182 -0.01105 0.0
          0.0169 -0.01105 0.0
          0.0156 -0.01105 0.0
          0.0143 -0.01105 0.0
          0.013 -0.01105 0.0
          0.0117 -0.01105 0.0
          0.0104 -0.01105 0.0
          0.0091 -0.01105 0.0
          0.0078 -0.01105 0.0
          0.0065 -0.01105 0.0
          0.0052 -0.01105 0.0
          0.0039 -0.01105 0.0
          0.0026 -0.01105 0.0
          0.0013 -0.01105 0.0
          0 -0.01105 0.0
          0.039 -0.01235 0.0
          0.0377 -0.01235 0.0
          0.0364 -0.01235 0.0
          0.0351 -0.01235 0.0
          0.0338 -0.01235 0.0
          0.0325 -0.01235 0.0
          0.0312 -0.01235 0.0
          0.0299 -0.01235 0.0
          0.0286 -0.01235 0.0
          0.0273 -0.01235 0.0
          0.026 -0.01235 0.0
          0.0247 -0.01235 0.0
          0.0234 -0.01235 0.0
          0.0221 -0.01235 0.0
          0.0208 -0.01235 0.0
          0.0195 -0.01235 0.0
          0.0182 -0.01235 0.0
          0.0169 -0.01235 0.0
          0.0156 -0.01235 0.0
          0.0143 -0.01235 0.0
          0.013 -0.01235 0.0
          0.0117 -0.01235 0.0
          0.0104 -0.01235 0.0
          0.0091 -0.01235 0.0
          0.0078 -0.01235 0.0
          0.0065 -0.01235 0.0
          0.0052 -0.01235 0.0
          0.0039 -0.01235 0.0
          0.0026 -0.01235 0.0
          0.0013 -0.01235 0.0
          0 -0.01235 0.0
          0.039 -0.01365 0.0
          0.0377 -0.01365 0.0
          0.0364 -0.01365 0.0
          0.0351 -0.01365 0.0
          0.0338 -0.01365 0.0
          0.0325 -0.01365 0.0
          0.0312 -0.01365 0.0
          0.0299 -0.01365 0.0
          0.0286 -0.01365 0.0
          0.0273 -0.01365 0.0
          0.026 -0.01365 0.0
          0.0247 -0.01365 0.0
          0.0234 -0.01365 0.0
          0.0221 -0.01365 0.0
          0.0208 -0.01365 0.0
          0.0195 -0.01365 0.0
          0.0182 -0.01365 0.0
          0.0169 -0.01365 0.0
          0.0156 -0.01365 0.0
          0.0143 -0.01365 0.0
          0.013 -0.01365 0.0
          0.0117 -0.01365 0.0
          0.0104 -0.01365 0.0
          0.0091 -0.01365 0.0
          0.0078 -0.01365 0.0
          0.0065 -0.01365 0.0
          0.0052 -0.01365 0.0
          0.0039 -0.01365 0.0
          0.0026 -0.01365 0.0
          0.0013 -0.01365 0.0
          0 -0.01365 0.0
          0.039 -0.01495 0.0
          0.0377 -0.01495 0.0
          0.0364 -0.01495 0.0
          0.0351 -0.01495 0.0
          0.0338 -0.01495 0.0
          0.0325 -0.01495 0.0
          0.0312 -0.01495 0.0
          0.0299 -0.01495 0.0
          0.0286 -0.01495 0.0
          0.0273 -0.01495 0.0
          0.026 -0.01495 0.0
          0.0247 -0.01495 0.0
          0.0234 -0.01495 0.0
          0.0221 -0.01495 0.0