<?xml version="1.0"?>
<VTKFile type="UnstructuredGrid" version="0.1" byte_order="LittleEndian">
  <UnstructuredGrid>
    <Piece NumberOfPoints="961" NumberOfCells="900">
      <PointData Scalars="Temperature">
        <DataArray type="Float32" Name="Temperature" format="ascii">
          21.0031
          21.052
          21.1027
          21.1532
          21.196
          21.2259
          21.241
          21.2462
          21.2439
          21.2347
          21.2169
          21.1934
          21.1695
          21.1519
          21.1429
          21.143
          21.1523
          21.1701
          21.1943
          21.218
          21.236
          21.2453
          21.2478
          21.2431
          21.2293
          21.2021
          21.1637
          21.1195
          21.0768
          21.038
          21.0023
          21.0504
          21.837
          22.6803
          23.5269
          24.2649
          24.7451
          24.9805
          25.0423
          25.0176
          24.8715
          24.5796
          24.1625
          23.7556
          23.4551
          23.3136
          23.3154
          23.4609
          23.7656
          24.1769
          24.598
          24.8926
          25.0406
          25.0677
          25.0123
          24.7962
          24.3581
          23.6931
          22.9493
          22.2374
          21.6137
          21.0369
          21.0938
          22.5603
          24.1547
          26.0583
          27.6087
          28.6098
          28.8397
          28.8995
          28.8755
          28.7327
          28.0769
          27.1534
          26.1593
          25.6034
          25.3484
          25.3519
          25.6141
          26.1781
          27.1821
          28.1138
          28.7751
          28.9198
          28.9462
          28.8925
          28.6814
          27.7564
          26.3471
          24.6527
          23.307
          22.1436
          21.0689
          21.1298
          23.1575
          25.3811
          28.0405
          32.8163
          32.8169
          32.8172
          32.8173
          32.8173
          32.8172
          32.8168
          29.4914
          28.194
          27.4661
          27.1415
          27.1463
          27.4809
          28.2201
          29.5312
          32.882
          32.8824
          32.8825
          32.8825
          32.8824
          32.8822
          32.8817
          28.4211
          26.0715
          24.2002
          22.5907
          21.0959
          21.1559
          23.5865
          26.201
          29.2963
          32.8175
          32.8177
          32.818
          32.8181
          32.8181
          32.818
          32.8179
          31.0254
          29.6995
          28.9642
          28.6274
          28.6332
          28.982
          29.7304
          31.0723
          32.8832
          32.8833
          32.8834
          32.8833
          32.8832
          32.883
          32.8828
          29.7431
          27.0446
          24.8634
          22.9323
          21.1168
          21.1724
          23.8467
          26.6511
          29.6555
          32.8195
          32.8197
          32.8199
          32.82
          32.82
          32.82
          32.8199
          31.6614
          30.7161
          30.0894
          29.7913
          29.7977
          30.1091
          30.7499
          31.7104
          32.8852
          32.8852
          32.8853
          32.8852
          32.8851
          32.885
          32.8848
          30.1599
          27.6105
          25.2956
          23.1675
          21.1313
          21.1813
          23.9825
          26.8468
          29.8012
          32.8225
          32.8227
          32.8229
          32.823
          32.823
          32.823
          32.823
          32.0362
          31.3683
          30.8986
          30.6627
          30.6695
          30.9193
          31.4033
          32.0862
          32.8882
          32.8882
          32.8882
          32.8882
          32.8881
          32.888
          32.8879
          30.3485
          27.8896
          25.5489
          23.3141
          21.1406
          21.1856
          24.0456
          26.9349
          29.8653
          32.8266
          32.8268
          32.8269
          32.827
          32.8271
          32.8271
          32.8271
          32.2804
          31.8092
          31.4697
          31.296
          31.303
          31.4909
          31.8449
          32.3307
          32.8923
          32.8923
          32.8923
          32.8922
          32.8921
          32.892
          32.8919
          30.4423
          28.034
          25.6872
          23.3988
          21.1461
          21.1876
          24.0747
          26.9755
          29.8959
          32.8317
          32.8318
          32.832
          32.8321
          32.8321
          32.8322
          32.8322
          32.4478
          32.1151
          31.8733
          31.7493
          31.7564
          31.8947
          32.151
          32.4983
          32.8973
          32.8974
          32.8973
          32.8973
          32.8972
          32.8971
          32.897
          30.4925
          28.1107
          25.7622
          23.4457
          21.1491
          21.1886
          24.0887
          26.9955
          29.9123
          32.8378
          32.838
          32.8381
          32.8382
          32.8383
          32.8383
          32.8383
          32.5661
          32.3306
          32.1594
          32.0722
          32.0794
          32.181
          32.3666
          32.6167
          32.9035
          32.9035
          32.9034
          32.9034
          32.9033
          32.9032
          32.9031
          30.5212
          28.1529
          25.8033
          23.4715
          21.1508
          21.189
          24.096
          27.0066
          29.9229
          32.845
          32.8451
          32.8453
          32.8454
          32.8454
          32.8455
          32.8455
          32.6515
          32.4843
          32.3633
          32.3027
          32.3099
          32.385
          32.5204
          32.7021
          32.9106
          32.9106
          32.9106
          32.9105
          32.9104
          32.9103
          32.9102
          30.5395
          28.1775
          25.8267
          23.4861
          21.1518
          21.1893
          24.1006
          27.0141
          29.9314
          32.8532
          32.8533
          32.8535
          32.8536
          32.8537
          32.8537
          32.8537
          32.7145
          32.5954
          32.5099
          32.4681
          32.4753
          32.5316
          32.6315
          32.7651
          32.9188
          32.9188
          32.9188
          32.9187
          32.9186
          32.9185
          32.9184
          30.5526
          28.1932
          25.8409
          23.4947
          21.1523
          21.1896
          24.1041
          27.0203
          29.9394
          32.8624
          32.8626
          32.8627
          32.8628
          32.8629
          32.863
          32.863
          32.7623
          32.677
          32.6166
          32.5881
          32.5953
          32.6383
          32.7131
          32.8129
          32.928
          32.928
          32.928
          32.9279
          32.9278
          32.9277
          32.9276
          30.5636
          28.2046
          25.8505
          23.5004
          21.1527
          21.1898
          24.1073
          27.0262
          29.9476
          32.8727
          32.8728
          32.873
          32.8731
          32.8732
          32.8733
          32.8733
          32.7998
          32.7384
          32.6957
          32.6766
          32.6838
          32.7173
          32.7744
          32.8503
          32.9383
          32.9383
          32.9382
          32.9381
          32.938
          32.9379
          32.9378
          30.5739
          28.2142
          25.8581
          23.5048
          21.153
          21.19
          24.1105
          27.0323
          29.9564
          32.884
          32.8841
          32.8843
          32.8844
          32.8845
          32.8846
          32.8846
          32.8304
          32.7859
          32.7558
          32.7434
          32.7507
          32.7774
          32.822
          32.8809
          32.9496
          32.9495
          32.9495
          32.9494
          32.9493
          32.9492
          32.949
          30.5844
          28.2233
          25.8651
          23.5087
          21.1532
          21.1902
          24.114
          27.0389
          29.9659
          32.8963
          32.8965
          32.8966
          32.8968
          32.8969
          32.897
          32.897
          32.8566
          32.8243
          32.8032
          32.7956
          32.8028
          32.8248
          32.8603
          32.9071
          32.9619
          32.9619
          32.9618
          32.9617
          32.9616
          32.9614
          32.9613
          30.5957
          28.2332
          25.8725
          23.5128
          21.1535
          21.1904
          24.118
          27.0463
          29.9764
          32.9096
          32.9098
          32.91
          32.9102
          32.9103
          32.9104
          32.9105
          32.8802
          32.8567
          32.8422
          32.8381
          32.8453
          32.8638
          32.8927
          32.9306
          32.9753
          32.9753
          32.9752
          32.975
          32.9749
          32.9747
          32.9746
          30.6084
          28.2446
          25.8814
          23.5178
          21.1538
          21.1907
          24.1226
          27.0548
          29.9881
          32.924
          32.9242
          32.9244
          32.9246
          32.9248
          32.925
          32.925
          32.9023
          32.8856
          32.876
          32.8746
          32.8818
          32.8976
          32.9215
          32.9527
          32.9898
          32.9897
          32.9896
          32.9894
          32.9892
          32.989
          32.9888
          30.6235
          28.2592
          25.8933
          23.5247
          21.1542
          21.1911
          24.1288
          27.0655
          30.0016
          32.9393
          32.9395
          32.9398
          32.9401
          32.9404
          32.9406
          32.9406
          32.9241
          32.9127
          32.9071
          32.9078
          32.915
          32.9287
          32.9487
          32.9744
          33.0053
          33.0053
          33.0051
          33.0048
          33.0045
          33.0043
          33.0041
          30.6425
          28.2795
          25.9107
          23.5351
          21.1549
          21.1918
          24.1377
          27.0802
          30.0184
          32.9555
          32.9557
          32.9561
          32.9566
          32.957
          32.9573
          32.9574
          32.9463
          32.9396
          32.9375
          32.94
          32.9471
          32.959
          32.9755
          32.9966
          33.022
          33.0219
          33.0216
          33.0212
          33.0208
          33.0204
          33.0202
          30.6682
          28.31
          25.9384
          23.552
          21.1561
          21.1924
          24.1531
          27.1035
          30.0415
          32.9725
          32.9728
          32.9734
          32.9741
          32.9748
          32.9753
          32.9755
          32.9697
          32.9676
          32.9688
          32.973
          32.9802
          32.9903
          33.0034
          33.0198
          33.04
          33.0398
          33.0393
          33.0387
          33.038
          33.0375
          33.0372
          30.706
          28.3598
          25.9854
          23.5815
          21.1576
          21.196
          24.1818
          27.1461
          30.078
          32.9902
          32.9907
          32.9916
          32.9927
          32.9938
          32.9946
          32.9949
          32.995
          32.9979
          33.0027
          33.0087
          33.0159
          33.0241
          33.0336
          33.045
          33.0593
          33.059
          33.0582
          33.0572
          33.0561
          33.0552
          33.0548
          30.7658
          28.4453
          26.0694
          23.6341
          21.1628
          21.1926
          24.2446
          27.2302
          30.1445
          33.0084
          33.009
          33.0104
          33.0123
          33.0141
          33.0155
          33.016
          33.0232
          33.0319
          33.0409
          33.0491
          33.0562
          33.0622
          33.0676
          33.0731
          33.0803
          33.0798
          33.0785
          33.0767
          33.0749
          33.0735
          33.0729
          30.8658
          28.5981
          26.2224
          23.7356
          21.1617
          21.2351
          24.3656
          27.4139
          30.2755
          33.0266
          33.0275
          33.0298
          33.0328
          33.036
          33.0384
          33.0393
          33.0555
          33.0716
          33.0856
          33.0963
          33.1034
          33.1068
          33.1071
          33.1053
          33.1034
          33.1025
          33.1002
          33.0971
          33.0941
          33.092
          33.0911
          31.0381
          28.8739
          26.5147
          23.9154
          21.208
          21.1069
          24.7111
          27.795
          30.554
          33.0442
          33.0456
          33.0492
          33.0543
          33.0597
          33.0639
          33.0655
          33.0939
          33.1193
          33.1392
          33.1528
          33.1599
          33.1604
          33.1546
          33.1434
          33.1294
          33.1278
          33.1237
          33.1185
          33.1135
          33.11
          33.1087
          31.3281
          29.3797
          27.0554
          24.3449
          21.0843
          21.8198
          25.2199
          28.7377
          31.0921
          33.0603
          33.0623
          33.0679
          33.0761
          33.0856
          33.0934
          33.0966
          33.1417
          33.1786
          33.205
          33.2215
          33.2285
          33.226
          33.2136
          33.1907
          33.16
          33.157
          33.1495
          33.1403
          33.1322
          33.1267
          33.1247
          31.7796
          30.2436
          28.2153
          24.9641
          21.8068
          19.0141
          28.0539
          30.5266
          31.9593
          33.0732
          33.0763
          33.085
          33.0975
          33.1129
          33.1299
          33.1358
          33.2062
          33.2542
          33.286
          33.3051
          33.3121
          33.3069
          33.2888
          33.2544
          33.1985
          33.1929
          33.1768
          33.1619
          33.1495
          33.1406
          33.1375
          32.3986
          31.5309
          30.2742
          27.9399
          18.9974
          33.0254
          33.0421
          33.0547
          33.0668
          33.0785
          33.0866
          33.0994
          33.1169
          33.1393
          33.1673
          33.2116
          33.2985
          33.3493
          33.385
          33.4062
          33.4132
          33.406
          33.3839
          33.3458
          33.2705
          33.2303
          33.2039
          33.1819
          33.1642
          33.1509
          33.1422
          33.1294
          33.1166
          33.1042
          33.0915
          33.0748
          33.0321
          33.0437
          33.0554
          33.0673
          33.0796
          33.0935
          33.1104
          33.1324
          33.1612
          33.1996
          33.2511
          33.3068
          33.3574
          33.3926
          33.4138
          33.4208
          33.4137
          33.3924
          33.3552
          33.3101
          33.2646
          33.2277
          33.1983
          33.1755
          33.1578
          33.143
          33.1298
          33.1169
          33.1048
          33.0931
          33.0814
          33.0395
          33.0468
          33.0565
          33.0682
          33.0816
          33.0975
          33.1172
          33.1424
          33.1754
          33.219
          33.2753
          33.3335
          33.3808
          33.4154
          33.4364
          33.4434
          33.4367
          33.4164
          33.384
          33.3416
          33.2915
          33.2445
          33.2093
          33.1827
          33.1619
          33.145
          33.1304
          33.1175
          33.1059
          33.0961
          33.0888
          33.0449
          33.0481
          33.0571
          33.0686
          33.0824
          33.0989
          33.1195
          33.1458
          33.1802
          33.2254
          33.2868
          33.3492
          33.3964
          33.4306
          33.4514
          33.4585
          33.452
          33.4324
          33.4009
          33.3588
          33.3036
          33.2506
          33.2132
          33.1852
          33.1634
          33.1457
          33.1308
          33.1177
          33.1064
          33.0974
          33.0942
        </DataArray>
      </PointData>
      <CellData>
      </CellData>
      <Points>
        <DataArray type="Float32" NumberOfComponents="3" format="ascii">
          0.039 0.00195 0.0
          0.0377 0.00195 0.0
          0.0364 0.00195 0.0
          0.0351 0.00195 0.0
          0.0338 0.00195 0.0
          0.0325 0.00195 0.0
          0.0312 0.00195 0.0
          0.0299 0.00195 0.0
          0.0286 0.00195 0.0
          0.0273 0.00195 0.0
          0.026 0.00195 0.0
          0.0247 0.00195 0.0
          0.0234 0.00195 0.0
          0.0221 0.00195 0.0
          0.0208 0.00195 0.0
          0.0195 0.00195 0.0
          0.0182 0.00195 0.0
          0.0169 0.00195 0.0
          0.0156 0.00195 0.0
          0.0143 0.00195 0.0
          0.013 0.00195 0.0
          0.0117 0.00195 0.0
          0.0104 0.00195 0.0
          0.0091 0.00195 0.0
          0.0078 0.00195 0.0
          0.0065 0.00195 0.0
          0.0052 0.00195 0.0
          0.0039 0.00195 0.0
          0.0026 0.00195 0.0
          0.0013 0.00195 0.0
          0 0.00195 0.0
          0.039 0.00065 0.0
          0.0377 0.00065 0.0
          0.0364 0.00065 0.0
          0.0351 0.00065 0.0
          0.0338 0.00065 0.0
          0.0325 0.00065 0.0
          0.0312 0.00065 0.0
          0.0299 0.00065 0.0
          0.0286 0.00065 0.0
          0.0273 0.00065 0.0
          0.026 0.00065 0.0
          0.0247 0.00065 0.0
          0.0234 0.00065 0.0
          0.0221 0.00065 0.0
          0.0208 0.00065 0.0
          0.0195 0.00065 0.0
          0.0182 0.00065 0.0
          0.0169 0.00065 0.0
          0.0156 0.00065 0.0
          0.0143 0.00065 0.0
          0.013 0.00065 0.0
          0.0117 0.00065 0.0
          0.0104 0.00065 0.0
          0.0091 0.00065 0.0
          0.0078 0.00065 0.0
          0.0065 0.00065 0.0
          0.0052 0.00065 0.0
          0.0039 0.00065 0.0
          0.0026 0.00065 0.0
          0.0013 0.00065 0.0
          0 0.00065 0.0
          0.039 -0.00065 0.0
          0.0377 -0.00065 0.0
          0.0364 -0.00065 0.0
          0.0351 -0.00065 0.0
          0.0338 -0.00065 0.0
          0.0325 -0.00065 0.0
          0.0312 -0.00065 0.0
          0.0299 -0.00065 0.0
          0.0286 -0.00065 0.0
          0.0273 -0.00065 0.0
          0.026 -0.00065 0.0
          0.0247 -0.00065 0.0
          0.0234 -0.00065 0.0
          0.0221 -0.00065 0.0
          0.0208 -0.00065 0.0
          0.0195 -0.00065 0.0
          0.0182 -0.00065 0.0
          0.0169 -0.00065 0.0
          0.0156 -0.00065 0.0
          0.0143 -0.00065 0.0
          0.013 -0.00065 0.0
          0.0117 -0.00065 0.0
          0.0104 -0.00065 0.0
          0.0091 -0.00065 0.0
          0.0078 -0.00065 0.0
          0.0065 -0.00065 0.0
          0.0052 -0.00065 0.0
          0.0039 -0.00065 0.0
          0.0026 -0.00065 0.0
          0.0013 -0.00065 0.0
          0 -0.00065 0.0
          0.039 -0.00195 0.0
          0.0377 -0.00195 0.0
          0.0364 -0.00195 0.0
          0.0351 -0.00195 0.0
          0.0338 -0.00195 0.0
          0.0325 -0.00195 0.0
          0.0312 -0.00195 0.0
          0.0299 -0.00195 0.0
          0.0286 -0.00195 0.0
          0.0273 -0.00195 0.0
          0.026 -0.00195 0.0
          0.0247 -0.00195 0.0
          0.0234 -0.00195 0.0
          0.0221 -0.00195 0.0
          0.0208 -0.00195 0.0
          0.0195 -0.00195 0.0
          0.0182 -0.00195 0.0
          0.0169 -0.00195 0.0
          0.0156 -0.00195 0.0
          0.0143 -0.00195 0.0
          0.013 -0.00195 0.0
          0.0117 -0.00195 0.0
          0.0104 -0.00195 0.0
          0.0091 -0.00195 0.0
          0.0078 -0.00195 0.0
          0.0065 -0.00195 0.0
          0.0052 -0.00195 0.0
          0.0039 -0.00195 0.0
          0.0026 -0.00195 0.0
          0.0013 -0.00195 0.0
          0 -0.00195 0.0
          0.039 -0.00325 0.0
          0.0377 -0.00325 0.0
          0.0364 -0.00325 0.0
          0.0351 -0.00325 0.0
          0.0338 -0.00325 0.0
          0.0325 -0.00325 0.0
          0.0312 -0.00325 0.0
          0.0299 -0.00325 0.0
          0.0286 -0.00325 0.0
          0.0273 -0.00325 0.0
          0.026 -0.00325 0.0
          0.0247 -0.00325 0.0
          0.0234 -0.00325 0.0
          0.0221 -0.00325 0.0
          0.0208 -0.00325 0.0
          0.0195 -0.00325 0.0
          0.0182 -0.00325 0.0
          0.0169 -0.00325 0.0
          0.0156 -0.00325 0.0
          0.0143 -0.00325 0.0
          0.013 -0.00325 0.0
          0.0117 -0.00325 0.0
          0.0104 -0.00325 0.0
          0.0091 -0.00325 0.0
          0.0078 -0.00325 0.0
          0.0065 -0.00325 0.0
          0.0052 -0.00325 0.0
          0.0039 -0.00325 0.0
          0.0026 -0.00325 0.0
          0.0013 -0.00325 0.0
          0 -0.00325 0.0
          0.039 -0.00455 0.0
          0.0377 -0.00455 0.0
          0.0364 -0.00455 0.0
          0.0351 -0.00455 0.0
          0.0338 -0.00455 0.0
          0.0325 -0.00455 0.0
          0.0312 -0.00455 0.0
          0.0299 -0.00455 0.0
          0.0286 -0.00455 0.0
          0.0273 -0.00455 0.0
          0.026 -0.00455 0.0
          0.0247 -0.00455 0.0
          0.0234 -0.00455 0.0
          0.0221 -0.00455 0.0
          0.0208 -0.00455 0.0
          0.0195 -0.00455 0.0
          0.0182 -0.00455 0.0
          0.0169 -0.00455 0.0
          0.0156 -0.00455 0.0
          0.0143 -0.00455 0.0
          0.013 -0.00455 0.0
          0.0117 -0.00455 0.0
          0.0104 -0.00455 0.0
          0.0091 -0.00455 0.0
          0.0078 -0.00455 0.0
          0.0065 -0.00455 0.0
          0.0052 -0.00455 0.0
          0.0039 -0.00455 0.0
          0.0026 -0.00455 0.0
          0.0013 -0.00455 0.0
          0 -0.00455 0.0
          0.039 -0.00585 0.0
          0.0377 -0.00585 0.0
          0.0364 -0.00585 0.0
          0.0351 -0.00585 0.0
          0.0338 -0.00585 0.0
          0.0325 -0.00585 0.0
          0.0312 -0.00585 0.0
          0.0299 -0.00585 0.0
          0.0286 -0.00585 0.0
          0.0273 -0.00585 0.0
          0.026 -0.00585 0.0
          0.0247 -0.00585 0.0
          0.0234 -0.00585 0.0
          0.0221 -0.00585 0.0
          0.0208 -0.00585 0.0
          0.0195 -0.00585 0.0
          0.0182 -0.00585 0.0
          0.0169 -0.00585 0.0
          0.0156 -0.00585 0.0
          0.0143 -0.00585 0.0
          0.013 -0.00585 0.0
          0.0117 -0.00585 0.0
          0.0104 -0.00585 0.0
          0.0091 -0.00585 0.0
          0.0078 -0.00585 0.0
          0.0065 -0.00585 0.0
          0.0052 -0.00585 0.0
          0.0039 -0.00585 0.0
          0.0026 -0.00585 0.0
          0.0013 -0.00585 0.0
          0 -0.00585 0.0
          0.039 -0.00715 0.0
          0.0377 -0.00715 0.0
          0.0364 -0.00715 0.0
          0.0351 -0.00715 0.0
          0.0338 -0.00715 0.0
          0.0325 -0.00715 0.0
          0.0312 -0.00715 0.0
          0.0299 -0.00715 0.0
          0.0286 -0.00715 0.0
          0.0273 -0.00715 0.0
          0.026 -0.00715 0.0
          0.0247 -0.00715 0.0
          0.0234 -0.00715 0.0
          0.0221 -0.00715 0.0
          0.0208 -0.00715 0.0
          0.0195 -0.00715 0.0
          0.0182 -0.00715 0.0
          0.0169 -0.00715 0.0
          0.0156 -0.00715 0.0
          0.0143 -0.00715 0.0
          0.013 -0.00715 0.0
          0.0117 -0.00715 0.0
          0.0104 -0.00715 0.0
          0.0091 -0.00715 0.0
          0.0078 -0.00715 0.0
          0.0065 -0.00715 0.0
          0.0052 -0.00715 0.0
          0.0039 -0.00715 0.0
          0.0026 -0.00715 0.0
          0.0013 -0.00715 0.0
          0 -0.00715 0.0
          0.039 -0.00845 0.0
          0.0377 -0.00845 0.0
          0.0364 -0.00845 0.0
          0.0351 -0.00845 0.0
          0.0338 -0.00845 0.0
          0.0325 -0.00845 0.0
          0.0312 -0.00845 0.0
          0.0299 -0.00845 0.0
          0.0286 -0.00845 0.0
          0.0273 -0.00845 0.0
          0.026 -0.00845 0.0
          0.0247 -0.00845 0.0
          0.0234 -0.00845 0.0
          0.0221 -0.00845 0.0
          0.0208 -0.00845 0.0
          0.0195 -0.00845 0.0
          0.0182 -0.00845 0.0
          0.0169 -0.00845 0.0
          0.0156 -0.00845 0.0
          0.0143 -0.00845 0.0
          0.013 -0.00845 0.0
          0.0117 -0.00845 0.0
          0.0104 -0.00845 0.0
          0.0091 -0.00845 0.0
          0.0078 -0.00845 0.0
          0.0065 -0.00845 0.0
          0.0052 -0.00845 0.0
          0.0039 -0.00845 0.0
          0.0026 -0.00845 0.0
          0.0013 -0.00845 0.0
          0 -0.00845 0.0
          0.039 -0.00975 0.0
          0.0377 -0.00975 0.0
          0.0364 -0.00975 0.0
          0.0351 -0.00975 0.0
          0.0338 -0.00975 0.0
          0.0325 -0.00975 0.0
          0.0312 -0.00975 0.0
          0.0299 -0.00975 0.0
          0.0286 -0.00975 0.0
          0.0273 -0.00975 0.0
          0.026 -0.00975 0.0
          0.0247 -0.00975 0.0
          0.0234 -0.00975 0.0
          0.0221 -0.00975 0.0
          0.0208 -0.00975 0.0
          0.0195 -0.00975 0.0
          0.0182 -0.00975 0.0
          0.0169 -0.00975 0.0
          0.0156 -0.00975 0.0
          0.0143 -0.00975 0.0
          0.013 -0.00975 0.0
          0.0117 -0.00975 0.0
          0.0104 -0.00975 0.0
          0.0091 -0.00975 0.0
          0.0078 -0.00975 0.0
          0.0065 -0.00975 0.0
          0.0052 -0.00975 0.0
          0.0039 -0.00975 0.0
          0.0026 -0.00975 0.0
          0.0013 -0.00975 0.0
          0 -0.00975 0.0
          0.039 -0.01105 0.0
          0.0377 -0.01105 0.0
          0.0364 -0.01105 0.0
          0.0351 -0.01105 0.0
          0.0338 -0.01105 0.0
          0.0325 -0.01105 0.0
          0.0312 -0.01105 0.0
          0.0299 -0.01105 0.0
          0.0286 -0.01105 0.0
          0.0273 -0.01105 0.0
          0.026 -0.01105 0.0
          0.0247 -0.01105 0.0
          0.0234 -0.01105 0.0
          0.0221 -0.01105 0.0
          0.0208 -0.01105 0.0
          0.0195 -0.01105 0.0
          0.0182 -0.01105 0.0
          0.0169 -0.01105 0.0
          0.0156 -0.01105 0.0
          0.0143 -0.01105 0.0
          0.013 -0.01105 0.0
          0.0117 -0.01105 0.0
          0.0104 -0.01105 0.0
          0.0091 -0.01105 0.0
          0.0078 -0.01105 0.0
          0.0065 -0.01105 0.0
          0.0052 -0.01105 0.0
          0.0039 -0.01105 0.0
          0.0026 -0.01105 0.0
          0.0013 -0.01105 0.0
          0 -0.01105 0.0
          0.039 -0.01235 0.0
          0.0377 -0.01235 0.0
          0.0364 -0.01235 0.0
          0.0351 -0.01235 0.0
          0.0338 -0.01235 0.0
          0.0325 -0.01235 0.0
          0.0312 -0.01235 0.0
          0.0299 -0.01235 0.0
          0.0286 -0.01235 0.0
          0.0273 -0.01235 0.0
          0.026 -0.01235 0.0
          0.0247 -0.01235 0.0
          0.0234 -0.01235 0.0
          0.0221 -0.01235 0.0
          0.0208 -0.01235 0.0
          0.0195 -0.01235 0.0
          0.0182 -0.01235 0.0
          0.0169 -0.01235 0.0
          0.0156 -0.01235 0.0
          0.0143 -0.01235 0.0
          0.013 -0.01235 0.0
          0.0117 -0.01235 0.0
          0.0104 -0.01235 0.0
          0.0091 -0.01235 0.0
          0.0078 -0.01235 0.0
          0.0065 -0.01235 0.0
          0.0052 -0.01235 0.0
          0.0039 -0.01235 0.0
          0.0026 -0.01235 0.0
          0.0013 -0.01235 0.0
          0 -0.01235 0.0
          0.039 -0.01365 0.0
          0.0377 -0.01365 0.0
          0.0364 -0.01365 0.0
          0.0351 -0.01365 0.0
          0.0338 -0.01365 0.0
          0.0325 -0.01365 0.0
          0.0312 -0.01365 0.0
          0.0299 -0.01365 0.0
          0.0286 -0.01365 0.0
          0.0273 -0.01365 0.0
          0.026 -0.01365 0.0
          0.0247 -0.01365 0.0
          0.0234 -0.01365 0.0
          0.0221 -0.01365 0.0
          0.0208 -0.01365 0.0
          0.0195 -0.01365 0.0
          0.0182 -0.01365 0.0
          0.0169 -0.01365 0.0
          0.0156 -0.01365 0.0
          0.0143 -0.01365 0.0
          0.013 -0.01365 0.0
          0.0117 -0.01365 0.0
          0.0104 -0.01365 0.0
          0.0091 -0.01365 0.0
          0.0078 -0.01365 0.0
          0.0065 -0.01365 0.0
          0.0052 -0.01365 0.0
          0.0039 -0.01365 0.0
          0.0026 -0.01365 0.0
          0.0013 -0.01365 0.0
          0 -0.01365 0.0
          0.039 -0.01495 0.0
          0.0377 -0.01495 0.0
          0.0364 -0.01495 0.0
          0.0351 -0.01495 0.0
          0.0338 -0.01495 0.0
          0.0325 -0.01495 0.0
          0.0312 -0.01495 0.0
          0.0299 -0.01495 0.0
          0.0286 -0.01495 0.0
          0.0273 -0.01495 0.0
          0.026 -0.01495 0.0
          0.0247 -0.01495 0.0
          0.0234 -0.01495 0.0
          0.0221 -0.01495 0.0