<?xml version="1.0"?>
<VTKFile type="UnstructuredGrid" version="0.1" byte_order="LittleEndian">
  <UnstructuredGrid>
    <Piece NumberOfPoints="961" NumberOfCells="900">
      <PointData Scalars="Temperature">
        <DataArray type="Float32" Name="Temperature" format="ascii">
          21.0032
          21.0541
          21.1069
          21.1595
          21.204
          21.2351
          21.2508
          21.2562
          21.2538
          21.2443
          21.2257
          21.2013
          21.1765
          21.1581
          21.1487
          21.1488
          21.1585
          21.1771
          21.2022
          21.2268
          21.2456
          21.2552
          21.2578
          21.253
          21.2386
          21.2103
          21.1704
          21.1243
          21.0799
          21.0395
          21.0024
          21.0525
          21.8712
          22.749
          23.6301
          24.3982
          24.8981
          25.143
          25.2073
          25.1816
          25.0296
          24.7258
          24.2917
          23.8682
          23.5555
          23.4081
          23.41
          23.5613
          23.8783
          24.3062
          24.7442
          25.0508
          25.2048
          25.233
          25.1753
          24.9504
          24.4945
          23.8026
          23.0285
          22.2877
          21.6387
          21.0384
          21.0976
          22.6241
          24.2835
          26.2648
          27.8785
          28.9204
          29.1597
          29.222
          29.197
          29.0484
          28.3658
          27.4048
          26.3701
          25.7916
          25.5261
          25.5296
          25.8023
          26.389
          27.4336
          28.4029
          29.0909
          29.2415
          29.2689
          29.213
          28.9933
          28.0308
          26.5643
          24.8012
          23.4008
          22.1902
          21.0717
          21.1351
          23.2456
          25.56
          28.3279
          33.2984
          33.299
          33.2993
          33.2994
          33.2995
          33.2994
          33.2989
          29.8382
          28.488
          27.7304
          27.3925
          27.3973
          27.7452
          28.5142
          29.8781
          33.3644
          33.3648
          33.3649
          33.3649
          33.3648
          33.3645
          33.364
          28.7226
          26.2776
          24.3303
          22.6554
          21.0998
          21.1623
          23.6921
          26.4133
          29.635
          33.2997
          33.2999
          33.3001
          33.3003
          33.3003
          33.3002
          33.3001
          31.4348
          30.0549
          29.2898
          28.939
          28.9449
          29.3076
          30.086
          31.4818
          33.3655
          33.3656
          33.3657
          33.3657
          33.3656
          33.3654
          33.3652
          30.0982
          27.2902
          25.0205
          23.0109
          21.1215
          21.1795
          23.9629
          26.8818
          30.0087
          33.3017
          33.3019
          33.302
          33.3022
          33.3022
          33.3022
          33.3021
          32.0967
          31.1131
          30.4608
          30.1505
          30.1569
          30.4806
          31.147
          32.1459
          33.3675
          33.3676
          33.3676
          33.3676
          33.3675
          33.3674
          33.3672
          30.5318
          27.8791
          25.4702
          23.2556
          21.1367
          21.1887
          24.1043
          27.0855
          30.1603
          33.3047
          33.3049
          33.305
          33.3051
          33.3052
          33.3052
          33.3052
          32.4867
          31.7918
          31.303
          31.0574
          31.0643
          31.3238
          31.8269
          32.5368
          33.3705
          33.3706
          33.3706
          33.3706
          33.3705
          33.3703
          33.3702
          30.728
          28.1695
          25.7337
          23.4081
          21.1463
          21.1932
          24.1699
          27.1771
          30.2269
          33.3087
          33.3089
          33.3091
          33.3092
          33.3092
          33.3092
          33.3092
          32.7407
          32.2506
          31.8973
          31.7164
          31.7235
          31.9186
          32.2864
          32.7912
          33.3746
          33.3746
          33.3746
          33.3746
          33.3745
          33.3744
          33.3742
          30.8256
          28.3196
          25.8776
          23.4963
          21.152
          21.1953
          24.2001
          27.2193
          30.2586
          33.3138
          33.314
          33.3141
          33.3142
          33.3143
          33.3143
          33.3143
          32.9148
          32.5688
          32.3172
          32.1881
          32.1952
          32.3387
          32.6048
          32.9655
          33.3797
          33.3797
          33.3797
          33.3796
          33.3795
          33.3794
          33.3793
          30.8776
          28.3993
          25.9555
          23.545
          21.1552
          21.1962
          24.2146
          27.2399
          30.2755
          33.3199
          33.3201
          33.3202
          33.3204
          33.3204
          33.3205
          33.3205
          33.0377
          32.7928
          32.6147
          32.524
          32.5312
          32.6364
          32.829
          33.0884
          33.3858
          33.3858
          33.3858
          33.3857
          33.3856
          33.3855
          33.3854
          30.9073
          28.4431
          25.9982
          23.5718
          21.1569
          21.1967
          24.2222
          27.2513
          30.2863
          33.3271
          33.3272
          33.3274
          33.3275
          33.3276
          33.3276
          33.3276
          33.1262
          32.9525
          32.8267
          32.7636
          32.7708
          32.8484
          32.9887
          33.177
          33.3929
          33.3929
          33.3929
          33.3928
          33.3927
          33.3926
          33.3925
          30.926
          28.4685
          26.0224
          23.5869
          21.1579
          21.197
          24.2268
          27.2589
          30.2948
          33.3352
          33.3354
          33.3356
          33.3357
          33.3358
          33.3358
          33.3358
          33.1915
          33.0678
          32.979
          32.9354
          32.9426
          33.0007
          33.104
          33.2422
          33.4011
          33.4011
          33.401
          33.401
          33.4009
          33.4008
          33.4006
          30.9394
          28.4846
          26.037
          23.5958
          21.1585
          21.1973
          24.2304
          27.2651
          30.3028
          33.3444
          33.3446
          33.3448
          33.3449
          33.345
          33.345
          33.345
          33.2408
          33.1523
          33.0896
          33.0599
          33.0671
          33.1113
          33.1885
          33.2915
          33.4103
          33.4102
          33.4102
          33.4101
          33.41
          33.4099
          33.4098
          30.9505
          28.4962
          26.0469
          23.6017
          21.1589
          21.1975
          24.2336
          27.271
          30.3111
          33.3547
          33.3549
          33.355
          33.3551
          33.3552
          33.3553
          33.3553
          33.2793
          33.2157
          33.1714
          33.1515
          33.1588
          33.1931
          33.2519
          33.33
          33.4205
          33.4205
          33.4204
          33.4203
          33.4202
          33.4201
          33.42
          30.9608
          28.5059
          26.0546
          23.6061
          21.1591
          21.1977
          24.2368
          27.2772
          30.3198
          33.3659
          33.3661
          33.3663
          33.3664
          33.3665
          33.3666
          33.3666
          33.3107
          33.2647
          33.2335
          33.2206
          33.2278
          33.2552
          33.3009
          33.3613
          33.4317
          33.4317
          33.4316
          33.4316
          33.4314
          33.4313
          33.4312
          30.9713
          28.5152
          26.0617
          23.6101
          21.1594
          21.1979
          24.2403
          27.2838
          30.3293
          33.3782
          33.3784
          33.3786
          33.3787
          33.3788
          33.3789
          33.3789
          33.3374
          33.3041
          33.2822
          33.2742
          33.2814
          33.3039
          33.3402
          33.388
          33.444
          33.444
          33.4439
          33.4438
          33.4437
          33.4435
          33.4434
          30.9827
          28.525
          26.0692
          23.6143
          21.1597
          21.1981
          24.2443
          27.2911
          30.3398
          33.3915
          33.3917
          33.3919
          33.3921
          33.3922
          33.3923
          33.3923
          33.3613
          33.3371
          33.3221
          33.3178
          33.325
          33.3438
          33.3732
          33.4118
          33.4573
          33.4573
          33.4572
          33.4571
          33.4569
          33.4568
          33.4566
          30.9955
          28.5366
          26.0782
          23.6194
          21.16
          21.1984
          24.249
          27.2997
          30.3515
          33.4057
          33.406
          33.4062
          33.4064
          33.4066
          33.4068
          33.4068
          33.3837
          33.3665
          33.3566
          33.3549
          33.3622
          33.3782
          33.4025
          33.4341
          33.4717
          33.4717
          33.4716
          33.4714
          33.4712
          33.471
          33.4708
          31.0107
          28.5514
          26.0903
          23.6264
          21.1604
          21.1988
          24.2551
          27.3104
          30.365
          33.421
          33.4212
          33.4215
          33.4218
          33.4221
          33.4223
          33.4224
          33.4056
          33.3939
          33.3881
          33.3887
          33.3959
          33.4097
          33.4299
          33.456
          33.4872
          33.4872
          33.487
          33.4867
          33.4864
          33.4861
          33.4859
          31.0299
          28.572
          26.1081
          23.637
          21.1611
          21.1995
          24.2643
          27.3254
          30.3819
          33.4371
          33.4374
          33.4378
          33.4382
          33.4387
          33.439
          33.4391
          33.4278
          33.421
          33.4187
          33.4211
          33.4283
          33.4403
          33.4569
          33.4782
          33.5039
          33.5038
          33.5035
          33.503
          33.5026
          33.5022
          33.502
          31.056
          28.6034
          26.1366
          23.6545
          21.1623
          21.2001
          24.2801
          27.3493
          30.4053
          33.4541
          33.4544
          33.455
          33.4557
          33.4564
          33.4569
          33.4571
          33.4512
          33.449
          33.4502
          33.4544
          33.4615
          33.4717
          33.4849
          33.5015
          33.5217
          33.5215
          33.5211
          33.5204
          33.5197
          33.5192
          33.5189
          31.0947
          28.6547
          26.1853
          23.685
          21.1639
          21.2039
          24.3097
          27.3931
          30.4428
          33.4717
          33.4721
          33.473
          33.4742
          33.4753
          33.4761
          33.4764
          33.4765
          33.4794
          33.4841
          33.4902
          33.4974
          33.5056
          33.5152
          33.5267
          33.541
          33.5407
          33.5399
          33.5388
          33.5377
          33.5369
          33.5364
          31.1562
          28.7431
          26.2722
          23.7395
          21.1693
          21.2003
          24.3748
          27.4801
          30.5113
          33.4898
          33.4904
          33.4918
          33.4937
          33.4956
          33.4969
          33.4975
          33.5046
          33.5134
          33.5224
          33.5306
          33.5377
          33.5438
          33.5491
          33.5547
          33.5619
          33.5614
          33.56
          33.5582
          33.5564
          33.555
          33.5544
          31.2595
          28.9015
          26.431
          23.8449
          21.1682
          21.2445
          24.5004
          27.6708
          30.6469
          33.5079
          33.5088
          33.511
          33.5141
          33.5173
          33.5197
          33.5206
          33.5369
          33.553
          33.567
          33.5778
          33.5849
          33.5883
          33.5886
          33.5868
          33.5848
          33.584
          33.5816
          33.5786
          33.5755
          33.5734
          33.5725
          31.438
          29.1877
          26.7346
          24.0316
          21.2163
          21.1112
          24.8595
          28.0667
          30.9358
          33.5254
          33.5267
          33.5303
          33.5355
          33.5409
          33.5452
          33.5468
          33.5753
          33.6007
          33.6207
          33.6343
          33.6413
          33.6418
          33.636
          33.6248
          33.6107
          33.6092
          33.6051
          33.5998
          33.5948
          33.5913
          33.5899
          31.7389
          29.713
          27.2963
          24.478
          21.0877
          21.8525
          25.3883
          29.0464
          31.4947
          33.5413
          33.5433
          33.549
          33.5572
          33.5667
          33.5745
          33.5778
          33.6229
          33.6599
          33.6864
          33.7029
          33.7099
          33.7074
          33.6949
          33.6721
          33.6413
          33.6382
          33.6308
          33.6215
          33.6134
          33.6078
          33.6058
          32.2076
          30.6107
          28.5019
          25.1215
          21.8388
          18.9352
          28.3348
          30.9061
          32.3959
          33.554
          33.5571
          33.5659
          33.5785
          33.5939
          33.611
          33.6169
          33.6874
          33.7354
          33.7673
          33.7864
          33.7934
          33.7882
          33.7701
          33.7356
          33.6797
          33.6741
          33.658
          33.643
          33.6305
          33.6216
          33.6184
          32.8505
          31.9484
          30.6419
          28.215
          18.9181
          33.5038
          33.5211
          33.5342
          33.5467
          33.5589
          33.5672
          33.5802
          33.5978
          33.6203
          33.6483
          33.6927
          33.7796
          33.8304
          33.8661
          33.8873
          33.8944
          33.8871
          33.8651
          33.827
          33.7516
          33.7114
          33.685
          33.6629
          33.6451
          33.6317
          33.6227
          33.6094
          33.5963
          33.5835
          33.5703
          33.5529
          33.5107
          33.5228
          33.5349
          33.5472
          33.5598
          33.574
          33.591
          33.6132
          33.6421
          33.6806
          33.7321
          33.7879
          33.8385
          33.8738
          33.8949
          33.9019
          33.8949
          33.8735
          33.8363
          33.7912
          33.7457
          33.7087
          33.6792
          33.6563
          33.6384
          33.6234
          33.6098
          33.5966
          33.5841
          33.5719
          33.5598
          33.5184
          33.526
          33.536
          33.548
          33.5618
          33.5779
          33.5978
          33.6231
          33.6562
          33.6999
          33.7563
          33.8146
          33.8619
          33.8966
          33.9175
          33.9246
          33.9179
          33.8976
          33.8651
          33.8227
          33.7726
          33.7255
          33.6902
          33.6634
          33.6424
          33.6253
          33.6104
          33.5971
          33.5852
          33.5751
          33.5675
          33.524
          33.5273
          33.5366
          33.5485
          33.5625
          33.5793
          33.6001
          33.6266
          33.6611
          33.7063
          33.7678
          33.8303
          33.8774
          33.9117
          33.9325
          33.9396
          33.9331
          33.9135
          33.882
          33.8399
          33.7846
          33.7315
          33.6941
          33.6659
          33.6439
          33.626
          33.6107
          33.5974
          33.5857
          33.5765
          33.5732
        </DataArray>
      </PointData>
      <CellData>
      </CellData>
      <Points>
        <DataArray type="Float32" NumberOfComponents="3" format="ascii">
          0.039 0.00195 0.0
          0.0377 0.00195 0.0
          0.0364 0.00195 0.0
          0.0351 0.00195 0.0
          0.0338 0.00195 0.0
          0.0325 0.00195 0.0
          0.0312 0.00195 0.0
          0.0299 0.00195 0.0
          0.0286 0.00195 0.0
          0.0273 0.00195 0.0
          0.026 0.00195 0.0
          0.0247 0.00195 0.0
          0.0234 0.00195 0.0
          0.0221 0.00195 0.0
          0.0208 0.00195 0.0
          0.0195 0.00195 0.0
          0.0182 0.00195 0.0
          0.0169 0.00195 0.0
          0.0156 0.00195 0.0
          0.0143 0.00195 0.0
          0.013 0.00195 0.0
          0.0117 0.00195 0.0
          0.0104 0.00195 0.0
          0.0091 0.00195 0.0
          0.0078 0.00195 0.0
          0.0065 0.00195 0.0
          0.0052 0.00195 0.0
          0.0039 0.00195 0.0
          0.0026 0.00195 0.0
          0.0013 0.00195 0.0
          0 0.00195 0.0
          0.039 0.00065 0.0
          0.0377 0.00065 0.0
          0.0364 0.00065 0.0
          0.0351 0.00065 0.0
          0.0338 0.00065 0.0
          0.0325 0.00065 0.0
          0.0312 0.00065 0.0
          0.0299 0.00065 0.0
          0.0286 0.00065 0.0
          0.0273 0.00065 0.0
          0.026 0.00065 0.0
          0.0247 0.00065 0.0
          0.0234 0.00065 0.0
          0.0221 0.00065 0.0
          0.0208 0.00065 0.0
          0.0195 0.00065 0.0
          0.0182 0.00065 0.0
          0.0169 0.00065 0.0
          0.0156 0.00065 0.0
          0.0143 0.00065 0.0
          0.013 0.00065 0.0
          0.0117 0.00065 0.0
          0.0104 0.00065 0.0
          0.0091 0.00065 0.0
          0.0078 0.00065 0.0
          0.0065 0.00065 0.0
          0.0052 0.00065 0.0
          0.0039 0.00065 0.0
          0.0026 0.00065 0.0
          0.0013 0.00065 0.0
          0 0.00065 0.0
          0.039 -0.00065 0.0
          0.0377 -0.00065 0.0
          0.0364 -0.00065 0.0
          0.0351 -0.00065 0.0
          0.0338 -0.00065 0.0
          0.0325 -0.00065 0.0
          0.0312 -0.00065 0.0
          0.0299 -0.00065 0.0
          0.0286 -0.00065 0.0
          0.0273 -0.00065 0.0
          0.026 -0.00065 0.0
          0.0247 -0.00065 0.0
          0.0234 -0.00065 0.0
          0.0221 -0.00065 0.0
          0.0208 -0.00065 0.0
          0.0195 -0.00065 0.0
          0.0182 -0.00065 0.0
          0.0169 -0.00065 0.0
          0.0156 -0.00065 0.0
          0.0143 -0.00065 0.0
          0.013 -0.00065 0.0
          0.0117 -0.00065 0.0
          0.0104 -0.00065 0.0
          0.0091 -0.00065 0.0
          0.0078 -0.00065 0.0
          0.0065 -0.00065 0.0
          0.0052 -0.00065 0.0
          0.0039 -0.00065 0.0
          0.0026 -0.00065 0.0
          0.0013 -0.00065 0.0
          0 -0.00065 0.0
          0.039 -0.00195 0.0
          0.0377 -0.00195 0.0
          0.0364 -0.00195 0.0
          0.0351 -0.00195 0.0
          0.0338 -0.00195 0.0
          0.0325 -0.00195 0.0
          0.0312 -0.00195 0.0
          0.0299 -0.00195 0.0
          0.0286 -0.00195 0.0
          0.0273 -0.00195 0.0
          0.026 -0.00195 0.0
          0.0247 -0.00195 0.0
          0.0234 -0.00195 0.0
          0.0221 -0.00195 0.0
          0.0208 -0.00195 0.0
          0.0195 -0.00195 0.0
          0.0182 -0.00195 0.0
          0.0169 -0.00195 0.0
          0.0156 -0.00195 0.0
          0.0143 -0.00195 0.0
          0.013 -0.00195 0.0
          0.0117 -0.00195 0.0
          0.0104 -0.00195 0.0
          0.0091 -0.00195 0.0
          0.0078 -0.00195 0.0
          0.0065 -0.00195 0.0
          0.0052 -0.00195 0.0
          0.0039 -0.00195 0.0
          0.0026 -0.00195 0.0
          0.0013 -0.00195 0.0
          0 -0.00195 0.0
          0.039 -0.00325 0.0
          0.0377 -0.00325 0.0
          0.0364 -0.00325 0.0
          0.0351 -0.00325 0.0
          0.0338 -0.00325 0.0
          0.0325 -0.00325 0.0
          0.0312 -0.00325 0.0
          0.0299 -0.00325 0.0
          0.0286 -0.00325 0.0
          0.0273 -0.00325 0.0
          0.026 -0.00325 0.0
          0.0247 -0.00325 0.0
          0.0234 -0.00325 0.0
          0.0221 -0.00325 0.0
          0.0208 -0.00325 0.0
          0.0195 -0.00325 0.0
          0.0182 -0.00325 0.0
          0.0169 -0.00325 0.0
          0.0156 -0.00325 0.0
          0.0143 -0.00325 0.0
          0.013 -0.00325 0.0
          0.0117 -0.00325 0.0
          0.0104 -0.00325 0.0
          0.0091 -0.00325 0.0
          0.0078 -0.00325 0.0
          0.0065 -0.00325 0.0
          0.0052 -0.00325 0.0
          0.0039 -0.00325 0.0
          0.0026 -0.00325 0.0
          0.0013 -0.00325 0.0
          0 -0.00325 0.0
          0.039 -0.00455 0.0
          0.0377 -0.00455 0.0
          0.0364 -0.00455 0.0
          0.0351 -0.00455 0.0
          0.0338 -0.00455 0.0
          0.0325 -0.00455 0.0
          0.0312 -0.00455 0.0
          0.0299 -0.00455 0.0
          0.0286 -0.00455 0.0
          0.0273 -0.00455 0.0
          0.026 -0.00455 0.0
          0.0247 -0.00455 0.0
          0.0234 -0.00455 0.0
          0.0221 -0.00455 0.0
          0.0208 -0.00455 0.0
          0.0195 -0.00455 0.0
          0.0182 -0.00455 0.0
          0.0169 -0.00455 0.0
          0.0156 -0.00455 0.0
          0.0143 -0.00455 0.0
          0.013 -0.00455 0.0
          0.0117 -0.00455 0.0
          0.0104 -0.00455 0.0
          0.0091 -0.00455 0.0
          0.0078 -0.00455 0.0
          0.0065 -0.00455 0.0
          0.0052 -0.00455 0.0
          0.0039 -0.00455 0.0
          0.0026 -0.00455 0.0
          0.0013 -0.00455 0.0
          0 -0.00455 0.0
          0.039 -0.00585 0.0
          0.0377 -0.00585 0.0
          0.0364 -0.00585 0.0
          0.0351 -0.00585 0.0
          0.0338 -0.00585 0.0
          0.0325 -0.00585 0.0
          0.0312 -0.00585 0.0
          0.0299 -0.00585 0.0
          0.0286 -0.00585 0.0
          0.0273 -0.00585 0.0
          0.026 -0.00585 0.0
          0.0247 -0.00585 0.0
          0.0234 -0.00585 0.0
          0.0221 -0.00585 0.0
          0.0208 -0.00585 0.0
          0.0195 -0.00585 0.0
          0.0182 -0.00585 0.0
          0.0169 -0.00585 0.0
          0.0156 -0.00585 0.0
          0.0143 -0.00585 0.0
          0.013 -0.00585 0.0
          0.0117 -0.00585 0.0
          0.0104 -0.00585 0.0
          0.0091 -0.00585 0.0
          0.0078 -0.00585 0.0
          0.0065 -0.00585 0.0
          0.0052 -0.00585 0.0
          0.0039 -0.00585 0.0
          0.0026 -0.00585 0.0
          0.0013 -0.00585 0.0
          0 -0.00585 0.0
          0.039 -0.00715 0.0
          0.0377 -0.00715 0.0
          0.0364 -0.00715 0.0
          0.0351 -0.00715 0.0
          0.0338 -0.00715 0.0
          0.0325 -0.00715 0.0
          0.0312 -0.00715 0.0
          0.0299 -0.00715 0.0
          0.0286 -0.00715 0.0
          0.0273 -0.00715 0.0
          0.026 -0.00715 0.0
          0.0247 -0.00715 0.0
          0.0234 -0.00715 0.0
          0.0221 -0.00715 0.0
          0.0208 -0.00715 0.0
          0.0195 -0.00715 0.0
          0.0182 -0.00715 0.0
          0.0169 -0.00715 0.0
          0.0156 -0.00715 0.0
          0.0143 -0.00715 0.0
          0.013 -0.00715 0.0
          0.0117 -0.00715 0.0
          0.0104 -0.00715 0.0
          0.0091 -0.00715 0.0
          0.0078 -0.00715 0.0
          0.0065 -0.00715 0.0
          0.0052 -0.00715 0.0
          0.0039 -0.00715 0.0
          0.0026 -0.00715 0.0
          0.0013 -0.00715 0.0
          0 -0.00715 0.0
          0.039 -0.00845 0.0
          0.0377 -0.00845 0.0
          0.0364 -0.00845 0.0
          0.0351 -0.00845 0.0
          0.0338 -0.00845 0.0
          0.0325 -0.00845 0.0
          0.0312 -0.00845 0.0
          0.0299 -0.00845 0.0
          0.0286 -0.00845 0.0
          0.0273 -0.00845 0.0
          0.026 -0.00845 0.0
          0.0247 -0.00845 0.0
          0.0234 -0.00845 0.0
          0.0221 -0.00845 0.0
          0.0208 -0.00845 0.0
          0.0195 -0.00845 0.0
          0.0182 -0.00845 0.0
          0.0169 -0.00845 0.0
          0.0156 -0.00845 0.0
          0.0143 -0.00845 0.0
          0.013 -0.00845 0.0
          0.0117 -0.00845 0.0
          0.0104 -0.00845 0.0
          0.0091 -0.00845 0.0
          0.0078 -0.00845 0.0
          0.0065 -0.00845 0.0
          0.0052 -0.00845 0.0
          0.0039 -0.00845 0.0
          0.0026 -0.00845 0.0
          0.0013 -0.00845 0.0
          0 -0.00845 0.0
          0.039 -0.00975 0.0
          0.0377 -0.00975 0.0
          0.0364 -0.00975 0.0
          0.0351 -0.00975 0.0
          0.0338 -0.00975 0.0
          0.0325 -0.00975 0.0
          0.0312 -0.00975 0.0
          0.0299 -0.00975 0.0
          0.0286 -0.00975 0.0
          0.0273 -0.00975 0.0
          0.026 -0.00975 0.0
          0.0247 -0.00975 0.0
          0.0234 -0.00975 0.0
          0.0221 -0.00975 0.0
          0.0208 -0.00975 0.0
          0.0195 -0.00975 0.0
          0.0182 -0.00975 0.0
          0.0169 -0.00975 0.0
          0.0156 -0.00975 0.0
          0.0143 -0.00975 0.0
          0.013 -0.00975 0.0
          0.0117 -0.00975 0.0
          0.0104 -0.00975 0.0
          0.0091 -0.00975 0.0
          0.0078 -0.00975 0.0
          0.0065 -0.00975 0.0
          0.0052 -0.00975 0.0
          0.0039 -0.00975 0.0
          0.0026 -0.00975 0.0
          0.0013 -0.00975 0.0
          0 -0.00975 0.0
          0.039 -0.01105 0.0
          0.0377 -0.01105 0.0
          0.0364 -0.01105 0.0
          0.0351 -0.01105 0.0
          0.0338 -0.01105 0.0
          0.0325 -0.01105 0.0
          0.0312 -0.01105 0.0
          0.0299 -0.01105 0.0
          0.0286 -0.01105 0.0
          0.0273 -0.01105 0.0
          0.026 -0.01105 0.0
          0.0247 -0.01105 0.0
          0.0234 -0.01105 0.0
          0.0221 -0.01105 0.0
          0.0208 -0.01105 0.0
          0.0195 -0.01105 0.0
          0.0182 -0.01105 0.0
          0.0169 -0.01105 0.0
          0.0156 -0.01105 0.0
          0.0143 -0.01105 0.0
          0.013 -0.01105 0.0
          0.0117 -0.01105 0.0
          0.0104 -0.01105 0.0
          0.0091 -0.01105 0.0
          0.0078 -0.01105 0.0
          0.0065 -0.01105 0.0
          0.0052 -0.01105 0.0
          0.0039 -0.01105 0.0
          0.0026 -0.01105 0.0
          0.0013 -0.01105 0.0
          0 -0.01105 0.0
          0.039 -0.01235 0.0
          0.0377 -0.01235 0.0
          0.0364 -0.01235 0.0
          0.0351 -0.01235 0.0
          0.0338 -0.01235 0.0
          0.0325 -0.01235 0.0
          0.0312 -0.01235 0.0
          0.0299 -0.01235 0.0
          0.0286 -0.01235 0.0
          0.0273 -0.01235 0.0
          0.026 -0.01235 0.0
          0.0247 -0.01235 0.0
          0.0234 -0.01235 0.0
          0.0221 -0.01235 0.0
          0.0208 -0.01235 0.0
          0.0195 -0.01235 0.0
          0.0182 -0.01235 0.0
          0.0169 -0.01235 0.0
          0.0156 -0.01235 0.0
          0.0143 -0.01235 0.0
          0.013 -0.01235 0.0
          0.0117 -0.01235 0.0
          0.0104 -0.01235 0.0
          0.0091 -0.01235 0.0
          0.0078 -0.01235 0.0
          0.0065 -0.01235 0.0
          0.0052 -0.01235 0.0
          0.0039 -0.01235 0.0
          0.0026 -0.01235 0.0
          0.0013 -0.01235 0.0
          0 -0.01235 0.0
          0.039 -0.01365 0.0
          0.0377 -0.01365 0.0
          0.0364 -0.01365 0.0
          0.0351 -0.01365 0.0
          0.0338 -0.01365 0.0
          0.0325 -0.01365 0.0
          0.0312 -0.01365 0.0
          0.0299 -0.01365 0.0
          0.0286 -0.01365 0.0
          0.0273 -0.01365 0.0
          0.026 -0.01365 0.0
          0.0247 -0.01365 0.0
          0.0234 -0.01365 0.0
          0.0221 -0.01365 0.0
          0.0208 -0.01365 0.0
          0.0195 -0.01365 0.0
          0.0182 -0.01365 0.0
          0.0169 -0.01365 0.0
          0.0156 -0.01365 0.0
          0.0143 -0.01365 0.0
          0.013 -0.01365 0.0
          0.0117 -0.01365 0.0
          0.0104 -0.01365 0.0
          0.0091 -0.01365 0.0
          0.0078 -0.01365 0.0
          0.0065 -0.01365 0.0
          0.0052 -0.01365 0.0
          0.0039 -0.01365 0.0
          0.0026 -0.01365 0.0
          0.0013 -0.01365 0.0
          0 -0.01365 0.0
          0.039 -0.01495 0.0
          0.0377 -0.01495 0.0
          0.0364 -0.01495 0.0
          0.0351 -0.01495 0.0
          0.0338 -0.01495 0.0
          0.0325 -0.01495 0.0
          0.0312 -0.01495 0.0
          0.0299 -0.01495 0.0
          0.0286 -0.01495 0.0
          0.0273 -0.01495 0.0
          0.026 -0.01495 0.0
          0.0247 -0.01495 0.0
          0.0234 -0.01495 0.0
          0.0221 -0.01495 0.0