<?xml version="1.0"?>
<VTKFile type="UnstructuredGrid" version="0.1" byte_order="LittleEndian">
  <UnstructuredGrid>
    <Piece NumberOfPoints="961" NumberOfCells="900">
      <PointData Scalars="Temperature">
        <DataArray type="Float32" Name="Temperature" format="ascii">
          21.0016
          21.0269
          21.0532
          21.0794
          21.1015
          21.117
          21.1248
          21.1275
          21.1263
          21.1216
          21.1123
          21.1001
          21.0877
          21.0786
          21.0739
          21.0741
          21.0789
          21.0883
          21.101
          21.1134
          21.1228
          21.1276
          21.129
          21.1265
          21.1193
          21.1052
          21.0852
          21.0621
          21.0399
          21.0197
          21.0012
          21.0261
          21.4333
          21.8701
          22.3086
          22.6911
          22.94
          23.062
          23.094
          23.0812
          23.0053
          22.8538
          22.6372
          22.4261
          22.2704
          22.1974
          22.1992
          22.2759
          22.4358
          22.6511
          22.8715
          23.0256
          23.103
          23.1172
          23.0884
          22.9758
          22.7475
          22.4012
          22.0139
          21.6434
          21.3191
          21.0192
          21.0486
          21.8078
          22.6336
          23.6202
          24.424
          24.9432
          25.0623
          25.0933
          25.0808
          25.0066
          24.666
          24.1864
          23.6702
          23.3821
          23.2506
          23.254
          23.3924
          23.6884
          24.2142
          24.7017
          25.0475
          25.1232
          25.137
          25.1091
          24.9991
          24.517
          23.7827
          22.9001
          22.1997
          21.5946
          21.0358
          21.0672
          22.1171
          23.269
          24.6476
          27.1256
          27.1259
          27.126
          27.1261
          27.1261
          27.126
          27.1258
          25.3978
          24.7238
          24.3462
          24.1789
          24.1836
          24.3605
          24.749
          25.4363
          27.1889
          27.1891
          27.1892
          27.1892
          27.1891
          27.189
          27.1887
          24.8627
          23.6385
          22.6643
          21.8271
          21.0499
          21.0807
          22.3394
          23.694
          25.299
          27.1265
          27.1266
          27.1267
          27.1268
          27.1268
          27.1268
          27.1267
          26.1931
          25.5035
          25.122
          24.9485
          24.9541
          25.1392
          25.5335
          26.2385
          27.1898
          27.1898
          27.1899
          27.1899
          27.1898
          27.1897
          27.1896
          25.5515
          24.1452
          23.0095
          22.0049
          21.0607
          21.0893
          22.4744
          23.9276
          25.4857
          27.1284
          27.1285
          27.1286
          27.1286
          27.1287
          27.1286
          27.1286
          26.5232
          26.0306
          25.705
          25.5517
          25.5579
          25.7241
          26.0632
          26.5706
          27.1917
          27.1917
          27.1917
          27.1917
          27.1917
          27.1916
          27.1915
          25.7691
          24.4402
          23.2347
          22.1274
          21.0683
          21.0939
          22.5452
          24.0297
          25.5623
          27.1314
          27.1315
          27.1315
          27.1316
          27.1316
          27.1316
          27.1316
          26.7185
          26.3693
          26.125
          26.0038
          26.0105
          26.145
          26.4032
          26.7668
          27.1947
          27.1947
          27.1947
          27.1947
          27.1946
          27.1946
          27.1945
          25.8684
          24.5862
          23.367
          22.2039
          21.0731
          21.0962
          22.5783
          24.0763
          25.597
          27.1355
          27.1356
          27.1356
          27.1357
          27.1357
          27.1357
          27.1357
          26.8467
          26.5993
          26.4222
          26.3333
          26.3401
          26.4428
          26.6337
          26.8954
          27.1988
          27.1988
          27.1988
          27.1988
          27.1987
          27.1987
          27.1986
          25.9188
          24.6625
          23.4397
          22.2483
          21.076
          21.0973
          22.5941
          24.0987
          25.6147
          27.1407
          27.1408
          27.1408
          27.1409
          27.1409
          27.1409
          27.1409
          26.9358
          26.7598
          26.6333
          26.5701
          26.577
          26.6541
          26.7946
          26.9847
          27.204
          27.204
          27.204
          27.204
          27.2039
          27.2039
          27.2038
          25.9469
          24.7039
          23.4797
          22.2732
          21.0776
          21.0978
          22.6021
          24.1106
          25.6256
          27.147
          27.1471
          27.1472
          27.1472
          27.1472
          27.1473
          27.1473
          27
          26.8743
          26.7842
          26.7401
          26.747
          26.8051
          26.9092
          27.049
          27.2103
          27.2103
          27.2103
          27.2103
          27.2102
          27.2102
          27.2101
          25.9644
          24.7277
          23.5024
          22.2873
          21.0785
          21.0981
          22.6069
          24.1182
          25.6339
          27.1544
          27.1545
          27.1546
          27.1546
          27.1547
          27.1547
          27.1547
          27.0478
          26.9574
          26.8933
          26.8628
          26.8698
          26.9142
          26.9923
          27.0968
          27.2177
          27.2177
          27.2177
          27.2177
          27.2176
          27.2176
          27.2175
          25.9768
          24.7427
          23.516
          22.2956
          21.0791
          21.0983
          22.6104
          24.1243
          25.6415
          27.1629
          27.163
          27.1631
          27.1632
          27.1632
          27.1632
          27.1632
          27.0847
          27.0191
          26.9733
          26.9526
          26.9596
          26.9943
          27.054
          27.1337
          27.2263
          27.2262
          27.2262
          27.2262
          27.2262
          27.2261
          27.226
          25.9871
          24.7535
          23.5251
          22.301
          21.0794
          21.0985
          22.6135
          24.1299
          25.6493
          27.1726
          27.1727
          27.1727
          27.1728
          27.1728
          27.1729
          27.1729
          27.1143
          27.0662
          27.0334
          27.0195
          27.0265
          27.0544
          27.1012
          27.1633
          27.2359
          27.2359
          27.2359
          27.2358
          27.2358
          27.2357
          27.2356
          25.9966
          24.7623
          23.5321
          22.305
          21.0797
          21.0987
          22.6165
          24.1358
          25.6576
          27.1833
          27.1834
          27.1835
          27.1836
          27.1836
          27.1836
          27.1836
          27.1392
          27.1035
          27.0799
          27.0709
          27.0779
          27.1009
          27.1384
          27.1882
          27.2466
          27.2466
          27.2466
          27.2466
          27.2465
          27.2464
          27.2464
          26.0063
          24.7705
          23.5382
          22.3084
          21.0799
          21.0989
          22.6198
          24.142
          25.6667
          27.1951
          27.1952
          27.1953
          27.1954
          27.1955
          27.1955
          27.1955
          27.1612
          27.1343
          27.1174
          27.1119
          27.1189
          27.1383
          27.1693
          27.2101
          27.2585
          27.2585
          27.2584
          27.2584
          27.2583
          27.2582
          27.2582
          26.0166
          24.7789
          23.5443
          22.3117
          21.0801
          21.0991
          22.6233
          24.1487
          25.6766
          27.2081
          27.2082
          27.2083
          27.2084
          27.2085
          27.2085
          27.2085
          27.1815
          27.1612
          27.149
          27.1461
          27.1531
          27.17
          27.1961
          27.2305
          27.2715
          27.2714
          27.2714
          27.2713
          27.2712
          27.2712
          27.2711
          26.0277
          24.788
          23.5508
          22.3152
          21.0803
          21.0994
          22.6272
          24.1561
          25.6873
          27.2221
          27.2222
          27.2223
          27.2224
          27.2226
          27.2226
          27.2227
          27.2012
          27.1858
          27.1772
          27.1762
          27.1832
          27.1982
          27.2207
          27.2501
          27.2856
          27.2855
          27.2855
          27.2854
          27.2853
          27.2852
          27.2851
          26.04
          24.7983
          23.5584
          22.3193
          21.0806
          21.0996
          22.6316
          24.1645
          25.6992
          27.2372
          27.2373
          27.2375
          27.2376
          27.2378
          27.2379
          27.2379
          27.221
          27.2094
          27.2037
          27.2043
          27.2113
          27.2247
          27.2443
          27.2699
          27.3008
          27.3008
          27.3007
          27.3005
          27.3004
          27.3002
          27.3001
          26.054
          24.8105
          23.5677
          22.3245
          21.0809
          21.1
          22.637
          24.1741
          25.7123
          27.2533
          27.2534
          27.2537
          27.2539
          27.2542
          27.2543
          27.2544
          27.2413
          27.2332
          27.23
          27.2319
          27.2389
          27.2509
          27.2681
          27.2902
          27.3172
          27.3172
          27.317
          27.3168
          27.3165
          27.3163
          27.3162
          26.0705
          24.826
          23.5801
          22.3317
          21.0813
          21.1005
          22.6439
          24.1862
          25.7276
          27.2704
          27.2706
          27.2709
          27.2713
          27.2717
          27.272
          27.2721
          27.2628
          27.258
          27.2573
          27.2604
          27.2674
          27.2782
          27.2929
          27.3117
          27.3349
          27.3348
          27.3345
          27.3341
          27.3338
          27.3335
          27.3333
          26.0909
          24.8473
          23.5983
          22.3424
          21.0821
          21.1009
          22.6544
          24.2031
          25.7466
          27.2885
          27.2887
          27.2892
          27.2898
          27.2904
          27.2909
          27.291
          27.286
          27.2848
          27.2867
          27.2912
          27.2982
          27.3076
          27.3196
          27.3348
          27.3538
          27.3536
          27.3532
          27.3526
          27.352
          27.3515
          27.3513
          26.1181
          24.8791
          23.6268
          22.3599
          21.083
          21.103
          22.6719
          24.2303
          25.7729
          27.3073
          27.3076
          27.3084
          27.3094
          27.3104
          27.3112
          27.3115
          27.3115
          27.3146
          27.3196
          27.3258
          27.3327
          27.3405
          27.3494
          27.3603
          27.3742
          27.3739
          27.3732
          27.3722
          27.3712
          27.3704
          27.3701
          26.1573
          24.9301
          23.6752
          22.3898
          21.0859
          21.1013
          22.7077
          24.2796
          25.8154
          27.3266
          27.3271
          27.3284
          27.3301
          27.3318
          27.3331
          27.3336
          27.3402
          27.3487
          27.3575
          27.3657
          27.3726
          27.3784
          27.3834
          27.3889
          27.3962
          27.3958
          27.3945
          27.3928
          27.3911
          27.3899
          27.3894
          26.2182
          25.0171
          23.7603
          22.4457
          21.0854
          21.124
          22.7743
          24.3819
          25.8921
          27.3461
          27.3469
          27.349
          27.3518
          27.3548
          27.3571
          27.3579
          27.3732
          27.3888
          27.4024
          27.4129
          27.4198
          27.4232
          27.4234
          27.4218
          27.4204
          27.4196
          27.4174
          27.4145
          27.4117
          27.4097
          27.409
          26.3176
          25.1696
          23.9197
          22.5434
          21.1102
          21.0562
          22.96
          24.5887
          26.0469
          27.3653
          27.3665
          27.3697
          27.3745
          27.3796
          27.3837
          27.3852
          27.4125
          27.4372
          27.4567
          27.47
          27.4769
          27.4773
          27.4716
          27.4608
          27.4475
          27.4461
          27.4421
          27.4372
          27.4325
          27.4293
          27.4281
          26.4797
          25.4446
          24.2115
          22.7741
          21.0445
          21.4345
          23.2323
          25.0935
          26.3393
          27.3831
          27.3849
          27.39
          27.3976
          27.4066
          27.4141
          27.4172
          27.4612
          27.4974
          27.5233
          27.5395
          27.5464
          27.5439
          27.5316
          27.5092
          27.4793
          27.4763
          27.4691
          27.4603
          27.4528
          27.4477
          27.4459
          26.7276
          25.9105
          24.8332
          23.1058
          21.4293
          19.9464
          24.7382
          26.0476
          26.8064
          27.3983
          27.401
          27.4087
          27.4203
          27.4349
          27.4515
          27.4572
          27.5267
          27.5741
          27.6056
          27.6244
          27.6313
          27.6261
          27.6081
          27.574
          27.5186
          27.5132
          27.4975
          27.4832
          27.4716
          27.4638
          27.461
          27.0649
          26.6025
          25.9341
          24.6929
          19.9333
          27.3787
          27.3877
          27.3951
          27.4025
          27.4081
          27.4134
          27.4246
          27.4407
          27.4623
          27.4896
          27.5336
          27.6203
          27.6707
          27.7061
          27.7271
          27.7341
          27.7268
          27.7048
          27.6668
          27.5914
          27.5513
          27.5255
          27.5043
          27.4879
          27.4762
          27.4703
          27.4634
          27.4551
          27.4472
          27.4396
          27.4305
          27.3822
          27.3886
          27.3956
          27.403
          27.4114
          27.422
          27.4367
          27.4571
          27.4847
          27.5224
          27.5732
          27.6285
          27.6788
          27.7138
          27.7347
          27.7416
          27.7346
          27.7132
          27.6762
          27.6313
          27.5863
          27.55
          27.5217
          27.5004
          27.4849
          27.4733
          27.4638
          27.4553
          27.4476
          27.4405
          27.434
          27.3862
          27.3903
          27.3964
          27.4042
          27.4141
          27.427
          27.4442
          27.4677
          27.4993
          27.542
          27.5976
          27.6553
          27.7022
          27.7366
          27.7573
          27.7643
          27.7576
          27.7373
          27.7051
          27.663
          27.6135
          27.5673
          27.5333
          27.5084
          27.4899
          27.4759
          27.4649
          27.4558
          27.4482
          27.4422
          27.438
          27.389
          27.391
          27.3968
          27.4048
          27.4151
          27.4287
          27.4468
          27.4713
          27.5043
          27.5485
          27.6092
          27.6711
          27.7178
          27.7517
          27.7723
          27.7794
          27.7728
          27.7533
          27.722
          27.6803
          27.6257
          27.5735
          27.5374
          27.5111
          27.4917
          27.4769
          27.4654
          27.4561
          27.4485
          27.4428
          27.4409
        </DataArray>
      </PointData>
      <CellData>
      </CellData>
      <Points>
        <DataArray type="Float32" NumberOfComponents="3" format="ascii">
          0.039 0.00195 0.0
          0.0377 0.00195 0.0
          0.0364 0.00195 0.0
          0.0351 0.00195 0.0
          0.0338 0.00195 0.0
          0.0325 0.00195 0.0
          0.0312 0.00195 0.0
          0.0299 0.00195 0.0
          0.0286 0.00195 0.0
          0.0273 0.00195 0.0
          0.026 0.00195 0.0
          0.0247 0.00195 0.0
          0.0234 0.00195 0.0
          0.0221 0.00195 0.0
          0.0208 0.00195 0.0
          0.0195 0.00195 0.0
          0.0182 0.00195 0.0
          0.0169 0.00195 0.0
          0.0156 0.00195 0.0
          0.0143 0.00195 0.0
          0.013 0.00195 0.0
          0.0117 0.00195 0.0
          0.0104 0.00195 0.0
          0.0091 0.00195 0.0
          0.0078 0.00195 0.0
          0.0065 0.00195 0.0
          0.0052 0.00195 0.0
          0.0039 0.00195 0.0
          0.0026 0.00195 0.0
          0.0013 0.00195 0.0
          0 0.00195 0.0
          0.039 0.00065 0.0
          0.0377 0.00065 0.0
          0.0364 0.00065 0.0
          0.0351 0.00065 0.0
          0.0338 0.00065 0.0
          0.0325 0.00065 0.0
          0.0312 0.00065 0.0
          0.0299 0.00065 0.0
          0.0286 0.00065 0.0
          0.0273 0.00065 0.0
          0.026 0.00065 0.0
          0.0247 0.00065 0.0
          0.0234 0.00065 0.0
          0.0221 0.00065 0.0
          0.0208 0.00065 0.0
          0.0195 0.00065 0.0
          0.0182 0.00065 0.0
          0.0169 0.00065 0.0
          0.0156 0.00065 0.0
          0.0143 0.00065 0.0
          0.013 0.00065 0.0
          0.0117 0.00065 0.0
          0.0104 0.00065 0.0
          0.0091 0.00065 0.0
          0.0078 0.00065 0.0
          0.0065 0.00065 0.0
          0.0052 0.00065 0.0
          0.0039 0.00065 0.0
          0.0026 0.00065 0.0
          0.0013 0.00065 0.0
          0 0.00065 0.0
          0.039 -0.00065 0.0
          0.0377 -0.00065 0.0
          0.0364 -0.00065 0.0
          0.0351 -0.00065 0.0
          0.0338 -0.00065 0.0
          0.0325 -0.00065 0.0
          0.0312 -0.00065 0.0
          0.0299 -0.00065 0.0
          0.0286 -0.00065 0.0
          0.0273 -0.00065 0.0
          0.026 -0.00065 0.0
          0.0247 -0.00065 0.0
          0.0234 -0.00065 0.0
          0.0221 -0.00065 0.0
          0.0208 -0.00065 0.0
          0.0195 -0.00065 0.0
          0.0182 -0.00065 0.0
          0.0169 -0.00065 0.0
          0.0156 -0.00065 0.0
          0.0143 -0.00065 0.0
          0.013 -0.00065 0.0
          0.0117 -0.00065 0.0
          0.0104 -0.00065 0.0
          0.0091 -0.00065 0.0
          0.0078 -0.00065 0.0
          0.0065 -0.00065 0.0
          0.0052 -0.00065 0.0
          0.0039 -0.00065 0.0
          0.0026 -0.00065 0.0
          0.0013 -0.00065 0.0
          0 -0.00065 0.0
          0.039 -0.00195 0.0
          0.0377 -0.00195 0.0
          0.0364 -0.00195 0.0
          0.0351 -0.00195 0.0
          0.0338 -0.00195 0.0
          0.0325 -0.00195 0.0
          0.0312 -0.00195 0.0
          0.0299 -0.00195 0.0
          0.0286 -0.00195 0.0
          0.0273 -0.00195 0.0
          0.026 -0.00195 0.0
          0.0247 -0.00195 0.0
          0.0234 -0.00195 0.0
          0.0221 -0.00195 0.0
          0.0208 -0.00195 0.0
          0.0195 -0.00195 0.0
          0.0182 -0.00195 0.0
          0.0169 -0.00195 0.0
          0.0156 -0.00195 0.0
          0.0143 -0.00195 0.0
          0.013 -0.00195 0.0
          0.0117 -0.00195 0.0
          0.0104 -0.00195 0.0
          0.0091 -0.00195 0.0
          0.0078 -0.00195 0.0
          0.0065 -0.00195 0.0
          0.0052 -0.00195 0.0
          0.0039 -0.00195 0.0
          0.0026 -0.00195 0.0
          0.0013 -0.00195 0.0
          0 -0.00195 0.0
          0.039 -0.00325 0.0
          0.0377 -0.00325 0.0
          0.0364 -0.00325 0.0
          0.0351 -0.00325 0.0
          0.0338 -0.00325 0.0
          0.0325 -0.00325 0.0
          0.0312 -0.00325 0.0
          0.0299 -0.00325 0.0
          0.0286 -0.00325 0.0
          0.0273 -0.00325 0.0
          0.026 -0.00325 0.0
          0.0247 -0.00325 0.0
          0.0234 -0.00325 0.0
          0.0221 -0.00325 0.0
          0.0208 -0.00325 0.0
          0.0195 -0.00325 0.0
          0.0182 -0.00325 0.0
          0.0169 -0.00325 0.0
          0.0156 -0.00325 0.0
          0.0143 -0.00325 0.0
          0.013 -0.00325 0.0
          0.0117 -0.00325 0.0
          0.0104 -0.00325 0.0
          0.0091 -0.00325 0.0
          0.0078 -0.00325 0.0
          0.0065 -0.00325 0.0
          0.0052 -0.00325 0.0
          0.0039 -0.00325 0.0
          0.0026 -0.00325 0.0
          0.0013 -0.00325 0.0
          0 -0.00325 0.0
          0.039 -0.00455 0.0
          0.0377 -0.00455 0.0
          0.0364 -0.00455 0.0
          0.0351 -0.00455 0.0
          0.0338 -0.00455 0.0
          0.0325 -0.00455 0.0
          0.0312 -0.00455 0.0
          0.0299 -0.00455 0.0
          0.0286 -0.00455 0.0
          0.0273 -0.00455 0.0
          0.026 -0.00455 0.0
          0.0247 -0.00455 0.0
          0.0234 -0.00455 0.0
          0.0221 -0.00455 0.0
          0.0208 -0.00455 0.0
          0.0195 -0.00455 0.0
          0.0182 -0.00455 0.0
          0.0169 -0.00455 0.0
          0.0156 -0.00455 0.0
          0.0143 -0.00455 0.0
          0.013 -0.00455 0.0
          0.0117 -0.00455 0.0
          0.0104 -0.00455 0.0
          0.0091 -0.00455 0.0
          0.0078 -0.00455 0.0
          0.0065 -0.00455 0.0
          0.0052 -0.00455 0.0
          0.0039 -0.00455 0.0
          0.0026 -0.00455 0.0
          0.0013 -0.00455 0.0
          0 -0.00455 0.0
          0.039 -0.00585 0.0
          0.0377 -0.00585 0.0
          0.0364 -0.00585 0.0
          0.0351 -0.00585 0.0
          0.0338 -0.00585 0.0
          0.0325 -0.00585 0.0
          0.0312 -0.00585 0.0
          0.0299 -0.00585 0.0
          0.0286 -0.00585 0.0
          0.0273 -0.00585 0.0
          0.026 -0.00585 0.0
          0.0247 -0.00585 0.0
          0.0234 -0.00585 0.0
          0.0221 -0.00585 0.0
          0.0208 -0.00585 0.0
          0.0195 -0.00585 0.0
          0.0182 -0.00585 0.0
          0.0169 -0.00585 0.0
          0.0156 -0.00585 0.0
          0.0143 -0.00585 0.0
          0.013 -0.00585 0.0
          0.0117 -0.00585 0.0
          0.0104 -0.00585 0.0
          0.0091 -0.00585 0.0
          0.0078 -0.00585 0.0
          0.0065 -0.00585 0.0
          0.0052 -0.00585 0.0
          0.0039 -0.00585 0.0
          0.0026 -0.00585 0.0
          0.0013 -0.00585 0.0
          0 -0.00585 0.0
          0.039 -0.00715 0.0
          0.0377 -0.00715 0.0
          0.0364 -0.00715 0.0
          0.0351 -0.00715 0.0
          0.0338 -0.00715 0.0
          0.0325 -0.00715 0.0
          0.0312 -0.00715 0.0
          0.0299 -0.00715 0.0
          0.0286 -0.00715 0.0
          0.0273 -0.00715 0.0
          0.026 -0.00715 0.0
          0.0247 -0.00715 0.0
          0.0234 -0.00715 0.0
          0.0221 -0.00715 0.0
          0.0208 -0.00715 0.0
          0.0195 -0.00715 0.0
          0.0182 -0.00715 0.0
          0.0169 -0.00715 0.0
          0.0156 -0.00715 0.0
          0.0143 -0.00715 0.0
          0.013 -0.00715 0.0
          0.0117 -0.00715 0.0
          0.0104 -0.00715 0.0
          0.0091 -0.00715 0.0
          0.0078 -0.00715 0.0
          0.0065 -0.00715 0.0
          0.0052 -0.00715 0.0
          0.0039 -0.00715 0.0
          0.0026 -0.00715 0.0
          0.0013 -0.00715 0.0
          0 -0.00715 0.0
          0.039 -0.00845 0.0
          0.0377 -0.00845 0.0
          0.0364 -0.00845 0.0
          0.0351 -0.00845 0.0
          0.0338 -0.00845 0.0
          0.0325 -0.00845 0.0
          0.0312 -0.00845 0.0
          0.0299 -0.00845 0.0
          0.0286 -0.00845 0.0
          0.0273 -0.00845 0.0
          0.026 -0.00845 0.0
          0.0247 -0.00845 0.0
          0.0234 -0.00845 0.0
          0.0221 -0.00845 0.0
          0.0208 -0.00845 0.0
          0.0195 -0.00845 0.0
          0.0182 -0.00845 0.0
          0.0169 -0.00845 0.0
          0.0156 -0.00845 0.0
          0.0143 -0.00845 0.0
          0.013 -0.00845 0.0
          0.0117 -0.00845 0.0
          0.0104 -0.00845 0.0
          0.0091 -0.00845 0.0
          0.0078 -0.00845 0.0
          0.0065 -0.00845 0.0
          0.0052 -0.00845 0.0
          0.0039 -0.00845 0.0
          0.0026 -0.00845 0.0
          0.0013 -0.00845 0.0
          0 -0.00845 0.0
          0.039 -0.00975 0.0
          0.0377 -0.00975 0.0
          0.0364 -0.00975 0.0
          0.0351 -0.00975 0.0
          0.0338 -0.00975 0.0
          0.0325 -0.00975 0.0
          0.0312 -0.00975 0.0
          0.0299 -0.00975 0.0
          0.0286 -0.00975 0.0
          0.0273 -0.00975 0.0
          0.026 -0.00975 0.0
          0.0247 -0.00975 0.0
          0.0234 -0.00975 0.0
          0.0221 -0.00975 0.0
          0.0208 -0.00975 0.0
          0.0195 -0.00975 0.0
          0.0182 -0.00975 0.0
          0.0169 -0.00975 0.0
          0.0156 -0.00975 0.0
          0.0143 -0.00975 0.0
          0.013 -0.00975 0.0
          0.0117 -0.00975 0.0
          0.0104 -0.00975 0.0
          0.0091 -0.00975 0.0
          0.0078 -0.00975 0.0
          0.0065 -0.00975 0.0
          0.0052 -0.00975 0.0
          0.0039 -0.00975 0.0
          0.0026 -0.00975 0.0
          0.0013 -0.00975 0.0
          0 -0.00975 0.0
          0.039 -0.01105 0.0
          0.0377 -0.01105 0.0
          0.0364 -0.01105 0.0
          0.0351 -0.01105 0.0
          0.0338 -0.01105 0.0
          0.0325 -0.01105 0.0
          0.0312 -0.01105 0.0
          0.0299 -0.01105 0.0
          0.0286 -0.01105 0.0
          0.0273 -0.01105 0.0
          0.026 -0.01105 0.0
          0.0247 -0.01105 0.0
          0.0234 -0.01105 0.0
          0.0221 -0.01105 0.0
          0.0208 -0.01105 0.0
          0.0195 -0.01105 0.0
          0.0182 -0.01105 0.0
          0.0169 -0.01105 0.0
          0.0156 -0.01105 0.0
          0.0143 -0.01105 0.0
          0.013 -0.01105 0.0
          0.0117 -0.01105 0.0
          0.0104 -0.01105 0.0
          0.0091 -0.01105 0.0
          0.0078 -0.01105 0.0
          0.0065 -0.01105 0.0
          0.0052 -0.01105 0.0
          0.0039 -0.01105 0.0
          0.0026 -0.01105 0.0
          0.0013 -0.01105 0.0
          0 -0.01105 0.0
          0.039 -0.01235 0.0
          0.0377 -0.01235 0.0
          0.0364 -0.01235 0.0
          0.0351 -0.01235 0.0
          0.0338 -0.01235 0.0
          0.0325 -0.01235 0.0
          0.0312 -0.01235 0.0
          0.0299 -0.01235 0.0
          0.0286 -0.01235 0.0
          0.0273 -0.01235 0.0
          0.026 -0.01235 0.0
          0.0247 -0.01235 0.0
          0.0234 -0.01235 0.0
          0.0221 -0.01235 0.0
          0.0208 -0.01235 0.0
          0.0195 -0.01235 0.0
          0.0182 -0.01235 0.0
          0.0169 -0.01235 0.0
          0.0156 -0.01235 0.0
          0.0143 -0.01235 0.0
          0.013 -0.01235 0.0
          0.0117 -0.01235 0.0
          0.0104 -0.01235 0.0
          0.0091 -0.01235 0.0
          0.0078 -0.01235 0.0
          0.0065 -0.01235 0.0
          0.0052 -0.01235 0.0
          0.0039 -0.01235 0.0
          0.0026 -0.01235 0.0
          0.0013 -0.01235 0.0
          0 -0.01235 0.0
          0.039 -0.01365 0.0
          0.0377 -0.01365 0.0
          0.0364 -0.01365 0.0
          0.0351 -0.01365 0.0
          0.0338 -0.01365 0.0
          0.0325 -0.01365 0.0
          0.0312 -0.01365 0.0
          0.0299 -0.01365 0.0
          0.0286 -0.01365 0.0
          0.0273 -0.01365 0.0
          0.026 -0.01365 0.0
          0.0247 -0.01365 0.0
          0.0234 -0.01365 0.0
          0.0221 -0.01365 0.0
          0.0208 -0.01365 0.0
          0.0195 -0.01365 0.0
          0.0182 -0.01365 0.0
          0.0169 -0.01365 0.0
          0.0156 -0.01365 0.0
          0.0143 -0.01365 0.0
          0.013 -0.01365 0.0
          0.0117 -0.01365 0.0
          0.0104 -0.01365 0.0
          0.0091 -0.01365 0.0
          0.0078 -0.01365 0.0
          0.0065 -0.01365 0.0
          0.0052 -0.01365 0.0
          0.0039 -0.01365 0.0
          0.0026 -0.01365 0.0
          0.0013 -0.01365 0.0
          0 -0.01365 0.0
          0.039 -0.01495 0.0
          0.0377 -0.01495 0.0
          0.0364 -0.01495 0.0
          0.0351 -0.01495 0.0
          0.0338 -0.01495 0.0
          0.0325 -0.01495 0.0
          0.0312 -0.01495 0.0
          0.0299 -0.01495 0.0
          0.0286 -0.01495 0.0
          0.0273 -0.01495 0.0
          0.026 -0.01495 0.0
          0.0247 -0.01495 0.0
          0.0234 -0.01495 0.0
          0.0221 -0.01495 0.0