<?xml version="1.0"?>
<VTKFile type="UnstructuredGrid" version="0.1" byte_order="LittleEndian">
  <UnstructuredGrid>
    <Piece NumberOfPoints="961" NumberOfCells="900">
      <PointData Scalars="Temperature">
        <DataArray type="Float32" Name="Temperature" format="ascii">
          21.0004
          21.006
          21.0119
          21.0184
          21.0259
          21.0349
          21.0462
          21.06
          21.0752
          21.0889
          21.0989
          21.1042
          21.1064
          21.107
          21.1072
          21.1073
          21.1072
          21.107
          21.1064
          21.1042
          21.0989
          21.0889
          21.0752
          21.06
          21.0462
          21.0349
          21.0259
          21.0184
          21.0119
          21.006
          21.0004
          21.0059
          21.0977
          21.1939
          21.2993
          21.4201
          21.5651
          21.7459
          21.9765
          22.2339
          22.4737
          22.6355
          22.718
          22.7447
          22.7534
          22.7561
          22.7567
          22.7561
          22.7534
          22.7447
          22.718
          22.6355
          22.4737
          22.2339
          21.9765
          21.7459
          21.5651
          21.4201
          21.2993
          21.1939
          21.0977
          21.0059
          21.0112
          21.1853
          21.3672
          21.5658
          21.7919
          22.0612
          22.3964
          22.8297
          23.428
          23.9432
          24.291
          24.3716
          24.3975
          24.4058
          24.4084
          24.409
          24.4084
          24.4058
          24.3975
          24.3716
          24.291
          23.9432
          23.428
          22.8297
          22.3964
          22.0612
          21.7919
          21.5658
          21.3672
          21.1853
          21.0112
          21.0161
          21.2655
          21.5252
          21.8066
          22.1238
          22.4964
          22.9538
          23.5475
          24.362
          26.0656
          26.0658
          26.0659
          26.0659
          26.066
          26.066
          26.066
          26.066
          26.066
          26.0659
          26.0659
          26.0658
          26.0656
          24.362
          23.5475
          22.9538
          22.4964
          22.1238
          21.8066
          21.5252
          21.2655
          21.0161
          21.0204
          21.3359
          21.6631
          22.0143
          22.4044
          22.8535
          23.3909
          24.0613
          24.9664
          26.0663
          26.0664
          26.0665
          26.0666
          26.0666
          26.0666
          26.0666
          26.0666
          26.0666
          26.0666
          26.0665
          26.0664
          26.0663
          24.9664
          24.0613
          23.3909
          22.8535
          22.4044
          22.0143
          21.6631
          21.3359
          21.0204
          21.024
          21.3956
          21.7788
          22.1856
          22.6301
          23.1295
          23.7059
          24.3879
          25.1861
          26.0681
          26.0682
          26.0682
          26.0683
          26.0683
          26.0683
          26.0683
          26.0683
          26.0683
          26.0683
          26.0682
          26.0682
          26.0681
          25.1861
          24.3879
          23.7059
          23.1295
          22.6301
          22.1856
          21.7788
          21.3956
          21.024
          21.027
          21.4443
          21.8723
          22.3217
          22.8043
          23.3329
          23.9214
          24.5791
          25.3033
          26.0709
          26.0709
          26.071
          26.071
          26.071
          26.071
          26.071
          26.071
          26.071
          26.071
          26.071
          26.0709
          26.0709
          25.3033
          24.5791
          23.9214
          23.3329
          22.8043
          22.3217
          21.8723
          21.4443
          21.027
          21.0294
          21.4829
          21.9457
          22.4267
          22.9348
          23.479
          24.0665
          24.7
          25.3743
          26.0747
          26.0747
          26.0747
          26.0748
          26.0748
          26.0748
          26.0748
          26.0748
          26.0748
          26.0748
          26.0747
          26.0747
          26.0747
          25.3743
          24.7
          24.0665
          23.479
          22.9348
          22.4267
          21.9457
          21.4829
          21.0294
          21.0312
          21.513
          22.0022
          22.506
          23.0311
          23.5833
          24.1663
          24.7805
          25.4213
          26.0795
          26.0795
          26.0796
          26.0796
          26.0796
          26.0796
          26.0796
          26.0796
          26.0796
          26.0796
          26.0796
          26.0795
          26.0795
          25.4213
          24.7805
          24.1663
          23.5833
          23.0311
          22.506
          22.0022
          21.513
          21.0312
          21.0327
          21.536
          22.0452
          22.5657
          23.1021
          23.6585
          24.2367
          24.8366
          25.4548
          26.0854
          26.0854
          26.0854
          26.0855
          26.0855
          26.0855
          26.0855
          26.0855
          26.0855
          26.0855
          26.0854
          26.0854
          26.0854
          25.4548
          24.8366
          24.2367
          23.6585
          23.1021
          22.5657
          22.0452
          21.536
          21.0327
          21.0338
          21.5537
          22.078
          22.6107
          23.1551
          23.7139
          24.2882
          24.8777
          25.4803
          26.0923
          26.0923
          26.0923
          26.0924
          26.0924
          26.0924
          26.0924
          26.0924
          26.0924
          26.0924
          26.0923
          26.0923
          26.0923
          25.4803
          24.8777
          24.2882
          23.7139
          23.1551
          22.6107
          22.078
          21.5537
          21.0338
          21.0346
          21.5675
          22.1036
          22.6456
          23.1959
          23.7562
          24.3275
          24.9096
          25.5012
          26.1002
          26.1003
          26.1003
          26.1003
          26.1003
          26.1003
          26.1003
          26.1003
          26.1003
          26.1003
          26.1003
          26.1003
          26.1002
          25.5012
          24.9096
          24.3275
          23.7562
          23.1959
          22.6456
          22.1036
          21.5675
          21.0346
          21.0353
          21.5788
          22.1243
          22.6738
          23.2287
          23.7904
          24.3594
          24.936
          25.5196
          26.1092
          26.1092
          26.1093
          26.1093
          26.1093
          26.1093
          26.1093
          26.1093
          26.1093
          26.1093
          26.1093
          26.1092
          26.1092
          25.5196
          24.936
          24.3594
          23.7904
          23.2287
          22.6738
          22.1243
          21.5788
          21.0353
          21.0359
          21.5886
          22.1423
          22.6982
          23.2572
          23.8201
          24.3874
          24.9597
          25.537
          26.1192
          26.1193
          26.1193
          26.1193
          26.1193
          26.1194
          26.1194
          26.1194
          26.1193
          26.1193
          26.1193
          26.1193
          26.1192
          25.537
          24.9597
          24.3874
          23.8201
          23.2572
          22.6982
          22.1423
          21.5886
          21.0359
          21.0365
          21.5979
          22.1595
          22.7215
          23.2843
          23.8483
          24.4143
          24.9827
          25.5545
          26.1303
          26.1303
          26.1304
          26.1304
          26.1304
          26.1304
          26.1304
          26.1304
          26.1304
          26.1304
          26.1304
          26.1303
          26.1303
          25.5545
          24.9827
          24.4143
          23.8483
          23.2843
          22.7215
          22.1595
          21.5979
          21.0365
          21.0371
          21.6078
          22.1776
          22.746
          23.3127
          23.878
          24.4424
          25.007
          25.5731
          26.1424
          26.1424
          26.1425
          26.1425
          26.1425
          26.1425
          26.1425
          26.1425
          26.1425
          26.1425
          26.1425
          26.1424
          26.1424
          25.5731
          25.007
          24.4424
          23.878
          23.3127
          22.746
          22.1776
          21.6078
          21.0371
          21.0378
          21.6193
          22.1987
          22.7743
          23.3454
          23.9118
          24.4742
          25.0342
          25.5938
          26.1555
          26.1556
          26.1556
          26.1556
          26.1557
          26.1557
          26.1557
          26.1557
          26.1557
          26.1556
          26.1556
          26.1556
          26.1555
          25.5938
          25.0342
          24.4742
          23.9118
          23.3454
          22.7743
          22.1987
          21.6193
          21.0378
          21.0388
          21.6337
          22.225
          22.8095
          23.3857
          23.9531
          24.5126
          25.0665
          25.6177
          26.1697
          26.1697
          26.1698
          26.1698
          26.1699
          26.1699
          26.1699
          26.1699
          26.1699
          26.1698
          26.1698
          26.1697
          26.1697
          25.6177
          25.0665
          24.5126
          23.9531
          23.3857
          22.8095
          22.225
          21.6337
          21.0388
          21.0399
          21.6529
          22.2597
          22.8556
          23.4379
          24.0059
          24.561
          25.1062
          25.6458
          26.1849
          26.1849
          26.185
          26.185
          26.1851
          26.1851
          26.1852
          26.1851
          26.1851
          26.185
          26.185
          26.1849
          26.1849
          25.6458
          25.1062
          24.561
          24.0059
          23.4379
          22.8556
          22.2597
          21.6529
          21.0399
          21.0416
          21.6794
          22.3074
          22.9183
          23.5079
          24.0756
          24.6235
          25.1562
          25.6798
          26.2011
          26.2011
          26.2012
          26.2013
          26.2014
          26.2015
          26.2015
          26.2015
          26.2014
          26.2013
          26.2012
          26.2011
          26.2011
          25.6798
          25.1562
          24.6235
          24.0756
          23.5079
          22.9183
          22.3074
          21.6794
          21.0416
          21.0438
          21.7172
          22.3747
          23.0055
          23.6038
          24.1691
          24.7056
          25.2203
          25.7215
          26.2183
          26.2183
          26.2184
          26.2186
          26.2188
          26.2189
          26.2189
          26.2189
          26.2188
          26.2186
          26.2184
          26.2183
          26.2183
          25.7215
          25.2203
          24.7056
          24.1691
          23.6038
          23.0055
          22.3747
          21.7172
          21.0438
          21.0481
          21.7723
          22.4724
          23.1296
          23.7369
          24.2959
          24.8142
          25.3026
          25.7728
          26.2364
          26.2365
          26.2367
          26.2369
          26.2372
          26.2374
          26.2374
          26.2374
          26.2372
          26.2369
          26.2367
          26.2365
          26.2364
          25.7728
          25.3026
          24.8142
          24.2959
          23.7369
          23.1296
          22.4724
          21.7723
          21.0481
          21.0501
          21.8576
          22.6174
          23.3094
          23.9235
          24.4679
          24.9571
          25.4079
          25.8359
          26.2554
          26.2556
          26.2559
          26.2563
          26.2567
          26.257
          26.2571
          26.257
          26.2567
          26.2563
          26.2559
          26.2556
          26.2554
          25.8359
          25.4079
          24.9571
          24.4679
          23.9235
          23.3094
          22.6174
          21.8576
          21.0501
          21.0735
          21.9868
          22.843
          23.5738
          24.1857
          24.6988
          25.1421
          25.5401
          25.9124
          26.2752
          26.2755
          26.276
          26.2767
          26.2774
          26.2779
          26.2781
          26.2779
          26.2774
          26.2767
          26.276
          26.2755
          26.2752
          25.9124
          25.5401
          25.1421
          24.6988
          24.1857
          23.5738
          22.843
          21.9868
          21.0735
          21.0231
          22.2353
          23.1978
          23.9722
          24.5495
          25.0014
          25.3752
          25.702
          26.0033
          26.2957
          26.296
          26.297
          26.2982
          26.2994
          26.3002
          26.3005
          26.3002
          26.2994
          26.2982
          26.297
          26.296
          26.2957
          26.0033
          25.702
          25.3752
          25.0014
          24.5495
          23.9722
          23.1978
          22.2353
          21.0231
          21.3434
          22.576
          23.8429
          24.5597
          25.0345
          25.3814
          25.6572
          25.893
          26.1079
          26.3163
          26.317
          26.3187
          26.3208
          26.3228
          26.3241
          26.3246
          26.3241
          26.3228
          26.3208
          26.3187
          26.317
          26.3163
          26.1079
          25.893
          25.6572
          25.3814
          25.0345
          24.5597
          23.8429
          22.576
          21.3434
          20.1187
          23.9554
          24.8969
          25.359
          25.6362
          25.8301
          25.9811
          26.1089
          26.2242
          26.3366
          26.3378
          26.3409
          26.3447
          26.3479
          26.35
          26.3507
          26.35
          26.3479
          26.3447
          26.3409
          26.3378
          26.3366
          26.2242
          26.1089
          25.9811
          25.8301
          25.6362
          25.359
          24.8969
          23.9554
          20.1187
          26.2841
          26.2917
          26.2981
          26.3051
          26.3129
          26.3216
          26.3312
          26.3414
          26.3513
          26.3549
          26.3574
          26.3638
          26.3702
          26.3752
          26.3784
          26.3794
          26.3784
          26.3752
          26.3702
          26.3638
          26.3574
          26.3549
          26.3513
          26.3414
          26.3312
          26.3216
          26.3129
          26.3051
          26.2981
          26.2917
          26.2841
          26.287
          26.2924
          26.2984
          26.3052
          26.313
          26.3217
          26.3314
          26.3419
          26.3526
          26.364
          26.3761
          26.3882
          26.3985
          26.4056
          26.4098
          26.4112
          26.4098
          26.4056
          26.3985
          26.3882
          26.3761
          26.364
          26.3526
          26.3419
          26.3314
          26.3217
          26.313
          26.3052
          26.2984
          26.2924
          26.287
          26.2902
          26.2937
          26.2989
          26.3054
          26.3131
          26.3218
          26.3317
          26.3428
          26.3558
          26.3721
          26.3947
          26.4167
          26.431
          26.4401
          26.4451
          26.4467
          26.4451
          26.4401
          26.431
          26.4167
          26.3947
          26.3721
          26.3558
          26.3428
          26.3317
          26.3218
          26.3131
          26.3054
          26.2989
          26.2937
          26.2902
          26.2926
          26.2943
          26.2991
          26.3055
          26.3131
          26.3219
          26.3319
          26.3433
          26.3572
          26.3755
          26.4043
          26.4325
          26.4486
          26.4584
          26.4637
          26.4654
          26.4637
          26.4584
          26.4486
          26.4325
          26.4043
          26.3755
          26.3572
          26.3433
          26.3319
          26.3219
          26.3131
          26.3055
          26.2991
          26.2943
          26.2926
        </DataArray>
      </PointData>
      <CellData>
      </CellData>
      <Points>
        <DataArray type="Float32" NumberOfComponents="3" format="ascii">
          0.039 0.00195 0.0
          0.0377 0.00195 0.0
          0.0364 0.00195 0.0
          0.0351 0.00195 0.0
          0.0338 0.00195 0.0
          0.0325 0.00195 0.0
          0.0312 0.00195 0.0
          0.0299 0.00195 0.0
          0.0286 0.00195 0.0
          0.0273 0.00195 0.0
          0.026 0.00195 0.0
          0.0247 0.00195 0.0
          0.0234 0.00195 0.0
          0.0221 0.00195 0.0
          0.0208 0.00195 0.0
          0.0195 0.00195 0.0
          0.0182 0.00195 0.0
          0.0169 0.00195 0.0
          0.0156 0.00195 0.0
          0.0143 0.00195 0.0
          0.013 0.00195 0.0
          0.0117 0.00195 0.0
          0.0104 0.00195 0.0
          0.0091 0.00195 0.0
          0.0078 0.00195 0.0
          0.0065 0.00195 0.0
          0.0052 0.00195 0.0
          0.0039 0.00195 0.0
          0.0026 0.00195 0.0
          0.0013 0.00195 0.0
          0 0.00195 0.0
          0.039 0.00065 0.0
          0.0377 0.00065 0.0
          0.0364 0.00065 0.0
          0.0351 0.00065 0.0
          0.0338 0.00065 0.0
          0.0325 0.00065 0.0
          0.0312 0.00065 0.0
          0.0299 0.00065 0.0
          0.0286 0.00065 0.0
          0.0273 0.00065 0.0
          0.026 0.00065 0.0
          0.0247 0.00065 0.0
          0.0234 0.00065 0.0
          0.0221 0.00065 0.0
          0.0208 0.00065 0.0
          0.0195 0.00065 0.0
          0.0182 0.00065 0.0
          0.0169 0.00065 0.0
          0.0156 0.00065 0.0
          0.0143 0.00065 0.0
          0.013 0.00065 0.0
          0.0117 0.00065 0.0
          0.0104 0.00065 0.0
          0.0091 0.00065 0.0
          0.0078 0.00065 0.0
          0.0065 0.00065 0.0
          0.0052 0.00065 0.0
          0.0039 0.00065 0.0
          0.0026 0.00065 0.0
          0.0013 0.00065 0.0
          0 0.00065 0.0
          0.039 -0.00065 0.0
          0.0377 -0.00065 0.0
          0.0364 -0.00065 0.0
          0.0351 -0.00065 0.0
          0.0338 -0.00065 0.0
          0.0325 -0.00065 0.0
          0.0312 -0.00065 0.0
          0.0299 -0.00065 0.0
          0.0286 -0.00065 0.0
          0.0273 -0.00065 0.0
          0.026 -0.00065 0.0
          0.0247 -0.00065 0.0
          0.0234 -0.00065 0.0
          0.0221 -0.00065 0.0
          0.0208 -0.00065 0.0
          0.0195 -0.00065 0.0
          0.0182 -0.00065 0.0
          0.0169 -0.00065 0.0
          0.0156 -0.00065 0.0
          0.0143 -0.00065 0.0
          0.013 -0.00065 0.0
          0.0117 -0.00065 0.0
          0.0104 -0.00065 0.0
          0.0091 -0.00065 0.0
          0.0078 -0.00065 0.0
          0.0065 -0.00065 0.0
          0.0052 -0.00065 0.0
          0.0039 -0.00065 0.0
          0.0026 -0.00065 0.0
          0.0013 -0.00065 0.0
          0 -0.00065 0.0
          0.039 -0.00195 0.0
          0.0377 -0.00195 0.0
          0.0364 -0.00195 0.0
          0.0351 -0.00195 0.0
          0.0338 -0.00195 0.0
          0.0325 -0.00195 0.0
          0.0312 -0.00195 0.0
          0.0299 -0.00195 0.0
          0.0286 -0.00195 0.0
          0.0273 -0.00195 0.0
          0.026 -0.00195 0.0
          0.0247 -0.00195 0.0
          0.0234 -0.00195 0.0
          0.0221 -0.00195 0.0
          0.0208 -0.00195 0.0
          0.0195 -0.00195 0.0
          0.0182 -0.00195 0.0
          0.0169 -0.00195 0.0
          0.0156 -0.00195 0.0
          0.0143 -0.00195 0.0
          0.013 -0.00195 0.0
          0.0117 -0.00195 0.0
          0.0104 -0.00195 0.0
          0.0091 -0.00195 0.0
          0.0078 -0.00195 0.0
          0.0065 -0.00195 0.0
          0.0052 -0.00195 0.0
          0.0039 -0.00195 0.0
          0.0026 -0.00195 0.0
          0.0013 -0.00195 0.0
          0 -0.00195 0.0
          0.039 -0.00325 0.0
          0.0377 -0.00325 0.0
          0.0364 -0.00325 0.0
          0.0351 -0.00325 0.0
          0.0338 -0.00325 0.0
          0.0325 -0.00325 0.0
          0.0312 -0.00325 0.0
          0.0299 -0.00325 0.0
          0.0286 -0.00325 0.0
          0.0273 -0.00325 0.0
          0.026 -0.00325 0.0
          0.0247 -0.00325 0.0
          0.0234 -0.00325 0.0
          0.0221 -0.00325 0.0
          0.0208 -0.00325 0.0
          0.0195 -0.00325 0.0
          0.0182 -0.00325 0.0
          0.0169 -0.00325 0.0
          0.0156 -0.00325 0.0
          0.0143 -0.00325 0.0
          0.013 -0.00325 0.0
          0.0117 -0.00325 0.0
          0.0104 -0.00325 0.0
          0.0091 -0.00325 0.0
          0.0078 -0.00325 0.0
          0.0065 -0.00325 0.0
          0.0052 -0.00325 0.0
          0.0039 -0.00325 0.0
          0.0026 -0.00325 0.0
          0.0013 -0.00325 0.0
          0 -0.00325 0.0
          0.039 -0.00455 0.0
          0.0377 -0.00455 0.0
          0.0364 -0.00455 0.0
          0.0351 -0.00455 0.0
          0.0338 -0.00455 0.0
          0.0325 -0.00455 0.0
          0.0312 -0.00455 0.0
          0.0299 -0.00455 0.0
          0.0286 -0.00455 0.0
          0.0273 -0.00455 0.0
          0.026 -0.00455 0.0
          0.0247 -0.00455 0.0
          0.0234 -0.00455 0.0
          0.0221 -0.00455 0.0
          0.0208 -0.00455 0.0
          0.0195 -0.00455 0.0
          0.0182 -0.00455 0.0
          0.0169 -0.00455 0.0
          0.0156 -0.00455 0.0
          0.0143 -0.00455 0.0
          0.013 -0.00455 0.0
          0.0117 -0.00455 0.0
          0.0104 -0.00455 0.0
          0.0091 -0.00455 0.0
          0.0078 -0.00455 0.0
          0.0065 -0.00455 0.0
          0.0052 -0.00455 0.0
          0.0039 -0.00455 0.0
          0.0026 -0.00455 0.0
          0.0013 -0.00455 0.0
          0 -0.00455 0.0
          0.039 -0.00585 0.0
          0.0377 -0.00585 0.0
          0.0364 -0.00585 0.0
          0.0351 -0.00585 0.0
          0.0338 -0.00585 0.0
          0.0325 -0.00585 0.0
          0.0312 -0.00585 0.0
          0.0299 -0.00585 0.0
          0.0286 -0.00585 0.0
          0.0273 -0.00585 0.0
          0.026 -0.00585 0.0
          0.0247 -0.00585 0.0
          0.0234 -0.00585 0.0
          0.0221 -0.00585 0.0
          0.0208 -0.00585 0.0
          0.0195 -0.00585 0.0
          0.0182 -0.00585 0.0
          0.0169 -0.00585 0.0
          0.0156 -0.00585 0.0
          0.0143 -0.00585 0.0
          0.013 -0.00585 0.0
          0.0117 -0.00585 0.0
          0.0104 -0.00585 0.0
          0.0091 -0.00585 0.0
          0.0078 -0.00585 0.0
          0.0065 -0.00585 0.0
          0.0052 -0.00585 0.0
          0.0039 -0.00585 0.0
          0.0026 -0.00585 0.0
          0.0013 -0.00585 0.0
          0 -0.00585 0.0
          0.039 -0.00715 0.0
          0.0377 -0.00715 0.0
          0.0364 -0.00715 0.0
          0.0351 -0.00715 0.0
          0.0338 -0.00715 0.0
          0.0325 -0.00715 0.0
          0.0312 -0.00715 0.0
          0.0299 -0.00715 0.0
          0.0286 -0.00715 0.0
          0.0273 -0.00715 0.0
          0.026 -0.00715 0.0
          0.0247 -0.00715 0.0
          0.0234 -0.00715 0.0
          0.0221 -0.00715 0.0
          0.0208 -0.00715 0.0
          0.0195 -0.00715 0.0
          0.0182 -0.00715 0.0
          0.0169 -0.00715 0.0
          0.0156 -0.00715 0.0
          0.0143 -0.00715 0.0
          0.013 -0.00715 0.0
          0.0117 -0.00715 0.0
          0.0104 -0.00715 0.0
          0.0091 -0.00715 0.0
          0.0078 -0.00715 0.0
          0.0065 -0.00715 0.0
          0.0052 -0.00715 0.0
          0.0039 -0.00715 0.0
          0.0026 -0.00715 0.0
          0.0013 -0.00715 0.0
          0 -0.00715 0.0
          0.039 -0.00845 0.0
          0.0377 -0.00845 0.0
          0.0364 -0.00845 0.0
          0.0351 -0.00845 0.0
          0.0338 -0.00845 0.0
          0.0325 -0.00845 0.0
          0.0312 -0.00845 0.0
          0.0299 -0.00845 0.0
          0.0286 -0.00845 0.0
          0.0273 -0.00845 0.0
          0.026 -0.00845 0.0
          0.0247 -0.00845 0.0
          0.0234 -0.00845 0.0
          0.0221 -0.00845 0.0
          0.0208 -0.00845 0.0
          0.0195 -0.00845 0.0
          0.0182 -0.00845 0.0
          0.0169 -0.00845 0.0
          0.0156 -0.00845 0.0
          0.0143 -0.00845 0.0
          0.013 -0.00845 0.0
          0.0117 -0.00845 0.0
          0.0104 -0.00845 0.0
          0.0091 -0.00845 0.0
          0.0078 -0.00845 0.0
          0.0065 -0.00845 0.0
          0.0052 -0.00845 0.0
          0.0039 -0.00845 0.0
          0.0026 -0.00845 0.0
          0.0013 -0.00845 0.0
          0 -0.00845 0.0
          0.039 -0.00975 0.0
          0.0377 -0.00975 0.0
          0.0364 -0.00975 0.0
          0.0351 -0.00975 0.0
          0.0338 -0.00975 0.0
          0.0325 -0.00975 0.0
          0.0312 -0.00975 0.0
          0.0299 -0.00975 0.0
          0.0286 -0.00975 0.0
          0.0273 -0.00975 0.0
          0.026 -0.00975 0.0
          0.0247 -0.00975 0.0
          0.0234 -0.00975 0.0
          0.0221 -0.00975 0.0
          0.0208 -0.00975 0.0
          0.0195 -0.00975 0.0
          0.0182 -0.00975 0.0
          0.0169 -0.00975 0.0
          0.0156 -0.00975 0.0
          0.0143 -0.00975 0.0
          0.013 -0.00975 0.0
          0.0117 -0.00975 0.0
          0.0104 -0.00975 0.0
          0.0091 -0.00975 0.0
          0.0078 -0.00975 0.0
          0.0065 -0.00975 0.0
          0.0052 -0.00975 0.0
          0.0039 -0.00975 0.0
          0.0026 -0.00975 0.0
          0.0013 -0.00975 0.0
          0 -0.00975 0.0
          0.039 -0.01105 0.0
          0.0377 -0.01105 0.0
          0.0364 -0.01105 0.0
          0.0351 -0.01105 0.0
          0.0338 -0.01105 0.0
          0.0325 -0.01105 0.0
          0.0312 -0.01105 0.0
          0.0299 -0.01105 0.0
          0.0286 -0.01105 0.0
          0.0273 -0.01105 0.0
          0.026 -0.01105 0.0
          0.0247 -0.01105 0.0
          0.0234 -0.01105 0.0
          0.0221 -0.01105 0.0
          0.0208 -0.01105 0.0
          0.0195 -0.01105 0.0
          0.0182 -0.01105 0.0
          0.0169 -0.01105 0.0
          0.0156 -0.01105 0.0
          0.0143 -0.01105 0.0
          0.013 -0.01105 0.0
          0.0117 -0.01105 0.0
          0.0104 -0.01105 0.0
          0.0091 -0.01105 0.0
          0.0078 -0.01105 0.0
          0.0065 -0.01105 0.0
          0.0052 -0.01105 0.0
          0.0039 -0.01105 0.0
          0.0026 -0.01105 0.0
          0.0013 -0.01105 0.0
          0 -0.01105 0.0
          0.039 -0.01235 0.0
          0.0377 -0.01235 0.0
          0.0364 -0.01235 0.0
          0.0351 -0.01235 0.0
          0.0338 -0.01235 0.0
          0.0325 -0.01235 0.0
          0.0312 -0.01235 0.0
          0.0299 -0.01235 0.0
          0.0286 -0.01235 0.0
          0.0273 -0.01235 0.0
          0.026 -0.01235 0.0
          0.0247 -0.01235 0.0
          0.0234 -0.01235 0.0
          0.0221 -0.01235 0.0
          0.0208 -0.01235 0.0
          0.0195 -0.01235 0.0
          0.0182 -0.01235 0.0
          0.0169 -0.01235 0.0
          0.0156 -0.01235 0.0
          0.0143 -0.01235 0.0
          0.013 -0.01235 0.0
          0.0117 -0.01235 0.0
          0.0104 -0.01235 0.0
          0.0091 -0.01235 0.0
          0.0078 -0.01235 0.0
          0.0065 -0.01235 0.0
          0.0052 -0.01235 0.0
          0.0039 -0.01235 0.0
          0.0026 -0.01235 0.0
          0.0013 -0.01235 0.0
          0 -0.01235 0.0
          0.039 -0.01365 0.0
          0.0377 -0.01365 0.0
          0.0364 -0.01365 0.0
          0.0351 -0.01365 0.0
          0.0338 -0.01365 0.0
          0.0325 -0.01365 0.0
          0.0312 -0.01365 0.0
          0.0299 -0.01365 0.0
          0.0286 -0.01365 0.0
          0.0273 -0.01365 0.0
          0.026 -0.01365 0.0
          0.0247 -0.01365 0.0
          0.0234 -0.01365 0.0
          0.0221 -0.01365 0.0
          0.0208 -0.01365 0.0
          0.0195 -0.01365 0.0
          0.0182 -0.01365 0.0
          0.0169 -0.01365 0.0
          0.0156 -0.01365 0.0
          0.0143 -0.01365 0.0
          0.013 -0.01365 0.0
          0.0117 -0.01365 0.0
          0.0104 -0.01365 0.0
          0.0091 -0.01365 0.0
          0.0078 -0.01365 0.0
          0.0065 -0.01365 0.0
          0.0052 -0.01365 0.0
          0.0039 -0.01365 0.0
          0.0026 -0.01365 0.0
          0.0013 -0.01365 0.0
          0 -0.01365 0.0
          0.039 -0.01495 0.0
          0.0377 -0.01495 0.0
          0.0364 -0.01495 0.0
          0.0351 -0.01495 0.0
          0.0338 -0.01495 0.0
          0.0325 -0.01495 0.0
          0.0312 -0.01495 0.0
          0.0299 -0.01495 0.0
          0.0286 -0.01495 0.0
          0.0273 -0.01495 0.0
          0.026 -0.01495 0.0
          0.0247 -0.01495 0.0
          0.0234 -0.01495 0.0
          0.0221 -0.01495 0.0