<?xml version="1.0"?>
<VTKFile type="UnstructuredGrid" version="0.1" byte_order="LittleEndian">
  <UnstructuredGrid>
    <Piece NumberOfPoints="961" NumberOfCells="900">
      <PointData Scalars="Temperature">
        <DataArray type="Float32" Name="Temperature" format="ascii">
          21.0003
          21.0046
          21.0092
          21.0142
          21.02
          21.0269
          21.0357
          21.0463
          21.0581
          21.0688
          21.0765
          21.0806
          21.0823
          21.0828
          21.0829
          21.0829
          21.0829
          21.0828
          21.0823
          21.0806
          21.0765
          21.0688
          21.0581
          21.0463
          21.0357
          21.0269
          21.02
          21.0142
          21.0092
          21.0046
          21.0003
          21.0046
          21.0753
          21.1495
          21.2309
          21.3242
          21.4362
          21.5761
          21.7546
          21.9538
          22.1395
          22.2648
          22.3287
          22.3494
          22.3561
          22.3582
          22.3587
          22.3582
          22.3561
          22.3494
          22.3287
          22.2648
          22.1395
          21.9538
          21.7546
          21.5761
          21.4362
          21.3242
          21.2309
          21.1495
          21.0753
          21.0046
          21.0087
          21.1429
          21.2832
          21.4364
          21.6111
          21.8193
          22.0786
          22.414
          22.8773
          23.2763
          23.5457
          23.6081
          23.6282
          23.6346
          23.6367
          23.6371
          23.6367
          23.6346
          23.6282
          23.6081
          23.5457
          23.2763
          22.8773
          22.414
          22.0786
          21.8193
          21.6111
          21.4364
          21.2832
          21.1429
          21.0087
          21.0124
          21.2047
          21.4051
          21.6223
          21.8672
          22.1552
          22.5091
          22.9688
          23.5998
          24.9197
          24.9199
          24.92
          24.92
          24.9201
          24.9201
          24.9201
          24.9201
          24.9201
          24.92
          24.92
          24.9199
          24.9197
          23.5998
          22.9688
          22.5091
          22.1552
          21.8672
          21.6223
          21.4051
          21.2047
          21.0124
          21.0157
          21.2591
          21.5115
          21.7825
          22.0838
          22.4311
          22.8469
          23.366
          24.0674
          24.9205
          24.9205
          24.9206
          24.9207
          24.9207
          24.9207
          24.9207
          24.9207
          24.9207
          24.9207
          24.9206
          24.9205
          24.9205
          24.0674
          23.366
          22.8469
          22.4311
          22.0838
          21.7825
          21.5115
          21.2591
          21.0157
          21.0185
          21.3051
          21.6007
          21.9148
          22.2581
          22.6443
          23.0904
          23.6186
          24.2376
          24.9222
          24.9223
          24.9223
          24.9223
          24.9224
          24.9224
          24.9224
          24.9224
          24.9224
          24.9223
          24.9223
          24.9223
          24.9222
          24.2376
          23.6186
          23.0904
          22.6443
          22.2581
          21.9148
          21.6007
          21.3051
          21.0185
          21.0208
          21.3427
          21.673
          22.0199
          22.3928
          22.8016
          23.2571
          23.7668
          24.3286
          24.925
          24.925
          24.925
          24.9251
          24.9251
          24.9251
          24.9251
          24.9251
          24.9251
          24.9251
          24.925
          24.925
          24.925
          24.3286
          23.7668
          23.2571
          22.8016
          22.3928
          22.0199
          21.673
          21.3427
          21.0208
          21.0227
          21.3726
          21.7298
          22.1011
          22.4938
          22.9148
          23.3697
          23.8608
          24.3842
          24.9288
          24.9288
          24.9289
          24.9289
          24.9289
          24.9289
          24.9289
          24.9289
          24.9289
          24.9289
          24.9289
          24.9288
          24.9288
          24.3842
          23.8608
          23.3697
          22.9148
          22.4938
          22.1011
          21.7298
          21.3726
          21.0227
          21.0241
          21.3959
          21.7736
          22.1627
          22.5686
          22.9958
          23.4473
          23.9237
          24.4215
          24.9337
          24.9337
          24.9337
          24.9337
          24.9338
          24.9338
          24.9338
          24.9338
          24.9338
          24.9337
          24.9337
          24.9337
          24.9337
          24.4215
          23.9237
          23.4473
          22.9958
          22.5686
          22.1627
          21.7736
          21.3959
          21.0241
          21.0252
          21.4138
          21.807
          22.2091
          22.6239
          23.0545
          23.5026
          23.9681
          24.4485
          24.9396
          24.9396
          24.9396
          24.9396
          24.9397
          24.9397
          24.9397
          24.9397
          24.9397
          24.9396
          24.9396
          24.9396
          24.9396
          24.4485
          23.9681
          23.5026
          23.0545
          22.6239
          22.2091
          21.807
          21.4138
          21.0252
          21.0261
          21.4276
          21.8326
          22.2444
          22.6655
          23.0981
          23.5433
          24.001
          24.4697
          24.9465
          24.9466
          24.9466
          24.9466
          24.9466
          24.9466
          24.9466
          24.9466
          24.9466
          24.9466
          24.9466
          24.9466
          24.9465
          24.4697
          24.001
          23.5433
          23.0981
          22.6655
          22.2444
          21.8326
          21.4276
          21.0261
          21.0267
          21.4385
          21.8528
          22.2719
          22.6977
          23.1318
          23.5749
          24.0271
          24.4875
          24.9546
          24.9546
          24.9546
          24.9546
          24.9547
          24.9547
          24.9547
          24.9547
          24.9547
          24.9546
          24.9546
          24.9546
          24.9546
          24.4875
          24.0271
          23.5749
          23.1318
          22.6977
          22.2719
          21.8528
          21.4385
          21.0267
          21.0273
          21.4474
          21.8692
          22.2943
          22.724
          23.1593
          23.601
          24.0491
          24.5036
          24.9636
          24.9637
          24.9637
          24.9637
          24.9637
          24.9637
          24.9637
          24.9637
          24.9637
          24.9637
          24.9637
          24.9637
          24.9636
          24.5036
          24.0491
          23.601
          23.1593
          22.724
          22.2943
          21.8692
          21.4474
          21.0273
          21.0278
          21.4553
          21.8837
          22.3141
          22.7471
          23.1836
          23.6242
          24.0693
          24.5191
          24.9738
          24.9738
          24.9738
          24.9738
          24.9739
          24.9739
          24.9739
          24.9739
          24.9739
          24.9738
          24.9738
          24.9738
          24.9738
          24.5191
          24.0693
          23.6242
          23.1836
          22.7471
          22.3141
          21.8837
          21.4553
          21.0278
          21.0283
          21.4628
          21.8976
          22.333
          22.7693
          23.207
          23.6467
          24.0892
          24.535
          24.985
          24.985
          24.985
          24.985
          24.9851
          24.9851
          24.9851
          24.9851
          24.9851
          24.985
          24.985
          24.985
          24.985
          24.535
          24.0892
          23.6467
          23.207
          22.7693
          22.333
          21.8976
          21.4628
          21.0283
          21.0288
          21.4708
          21.9124
          22.353
          22.7926
          23.2316
          23.6705
          24.1102
          24.552
          24.9972
          24.9972
          24.9973
          24.9973
          24.9973
          24.9973
          24.9973
          24.9973
          24.9973
          24.9973
          24.9973
          24.9972
          24.9972
          24.552
          24.1102
          23.6705
          23.2316
          22.7926
          22.353
          21.9124
          21.4708
          21.0288
          21.0293
          21.4802
          21.9295
          22.3761
          22.8195
          23.2597
          23.6974
          24.1338
          24.5709
          25.0105
          25.0105
          25.0105
          25.0106
          25.0106
          25.0106
          25.0106
          25.0106
          25.0106
          25.0106
          25.0105
          25.0105
          25.0105
          24.5709
          24.1338
          23.6974
          23.2597
          22.8195
          22.3761
          21.9295
          21.4802
          21.0293
          21.0301
          21.4918
          21.9508
          22.4047
          22.8525
          23.2938
          23.7296
          24.1616
          24.5924
          25.0248
          25.0248
          25.0249
          25.0249
          25.025
          25.025
          25.025
          25.025
          25.025
          25.0249
          25.0249
          25.0248
          25.0248
          24.5924
          24.1616
          23.7296
          23.2938
          22.8525
          22.4047
          21.9508
          21.4918
          21.0301
          21.031
          21.5073
          21.9788
          22.442
          22.8949
          23.3371
          23.7697
          24.1954
          24.6175
          25.0402
          25.0402
          25.0403
          25.0403
          25.0404
          25.0404
          25.0404
          25.0404
          25.0404
          25.0403
          25.0403
          25.0402
          25.0402
          24.6175
          24.1954
          23.7697
          23.3371
          22.8949
          22.442
          21.9788
          21.5073
          21.031
          21.0324
          21.5284
          22.017
          22.4924
          22.9514
          23.3938
          23.8212
          24.2375
          24.6475
          25.0566
          25.0566
          25.0567
          25.0568
          25.0569
          25.0569
          25.057
          25.0569
          25.0569
          25.0568
          25.0567
          25.0566
          25.0566
          24.6475
          24.2375
          23.8212
          23.3938
          22.9514
          22.4924
          22.017
          21.5284
          21.0324
          21.0341
          21.5585
          22.0707
          22.5621
          23.0284
          23.4694
          23.8883
          24.2908
          24.6837
          25.074
          25.074
          25.0741
          25.0743
          25.0744
          25.0745
          25.0746
          25.0745
          25.0744
          25.0743
          25.0741
          25.074
          25.074
          24.6837
          24.2908
          23.8883
          23.4694
          23.0284
          22.5621
          22.0707
          21.5585
          21.0341
          21.0375
          21.6024
          22.1483
          22.6609
          23.1348
          23.5712
          23.9763
          24.3587
          24.7276
          25.0923
          25.0924
          25.0926
          25.0929
          25.0931
          25.0933
          25.0933
          25.0933
          25.0931
          25.0929
          25.0926
          25.0924
          25.0923
          24.7276
          24.3587
          23.9763
          23.5712
          23.1348
          22.6609
          22.1483
          21.6024
          21.0375
          21.0392
          21.6698
          22.2633
          22.8037
          23.2834
          23.7088
          24.0915
          24.4448
          24.7811
          25.1116
          25.1118
          25.1121
          25.1125
          25.1129
          25.1132
          25.1133
          25.1132
          25.1129
          25.1125
          25.1121
          25.1118
          25.1116
          24.7811
          24.4448
          24.0915
          23.7088
          23.2834
          22.8037
          22.2633
          21.6698
          21.0392
          21.0575
          21.7719
          22.4416
          23.013
          23.4916
          23.8929
          24.2401
          24.5524
          24.8453
          25.1317
          25.1319
          25.1325
          25.1332
          25.1338
          25.1343
          25.1345
          25.1343
          25.1338
          25.1332
          25.1325
          25.1319
          25.1317
          24.8453
          24.5524
          24.2401
          23.8929
          23.4916
          23.013
          22.4416
          21.7719
          21.0575
          21.0179
          21.9677
          22.7215
          23.3278
          23.7798
          24.1337
          24.4268
          24.6836
          24.9211
          25.1525
          25.1528
          25.1537
          25.1549
          25.156
          25.1568
          25.1571
          25.1568
          25.156
          25.1549
          25.1537
          25.1528
          25.1525
          24.9211
          24.6836
          24.4268
          24.1337
          23.7798
          23.3278
          22.7215
          21.9677
          21.0179
          21.2697
          22.2361
          23.2297
          23.7916
          24.1637
          24.4358
          24.6525
          24.8381
          25.0079
          25.1735
          25.1741
          25.1757
          25.1778
          25.1797
          25.181
          25.1814
          25.181
          25.1797
          25.1778
          25.1757
          25.1741
          25.1735
          25.0079
          24.8381
          24.6525
          24.4358
          24.1637
          23.7916
          23.2297
          22.2361
          21.2697
          20.3076
          23.3206
          24.0596
          24.4222
          24.6398
          24.7924
          24.9117
          25.0129
          25.1045
          25.1942
          25.1954
          25.1983
          25.2019
          25.205
          25.2071
          25.2078
          25.2071
          25.205
          25.2019
          25.1983
          25.1954
          25.1942
          25.1045
          25.0129
          24.9117
          24.7924
          24.6398
          24.4222
          24.0596
          23.3206
          20.3076
          25.1513
          25.1574
          25.1628
          25.1688
          25.1758
          25.1837
          25.1925
          25.2018
          25.2109
          25.2134
          25.2154
          25.2215
          25.2277
          25.2326
          25.2356
          25.2366
          25.2356
          25.2326
          25.2277
          25.2215
          25.2154
          25.2134
          25.2109
          25.2018
          25.1925
          25.1837
          25.1758
          25.1688
          25.1628
          25.1574
          25.1513
          25.1535
          25.1579
          25.163
          25.1689
          25.1758
          25.1838
          25.1926
          25.2024
          25.2123
          25.2229
          25.2344
          25.2461
          25.2561
          25.2631
          25.2672
          25.2685
          25.2672
          25.2631
          25.2561
          25.2461
          25.2344
          25.2229
          25.2123
          25.2024
          25.1926
          25.1838
          25.1758
          25.1689
          25.163
          25.1579
          25.1535
          25.1561
          25.159
          25.1633
          25.1691
          25.1759
          25.1839
          25.193
          25.2033
          25.2155
          25.2312
          25.2532
          25.2748
          25.2888
          25.2976
          25.3025
          25.3041
          25.3025
          25.2976
          25.2888
          25.2748
          25.2532
          25.2312
          25.2155
          25.2033
          25.193
          25.1839
          25.1759
          25.1691
          25.1633
          25.159
          25.1561
          25.158
          25.1594
          25.1635
          25.1691
          25.176
          25.1839
          25.1931
          25.2038
          25.2169
          25.2346
          25.2629
          25.2907
          25.3064
          25.316
          25.3212
          25.3229
          25.3212
          25.316
          25.3064
          25.2907
          25.2629
          25.2346
          25.2169
          25.2038
          25.1931
          25.1839
          25.176
          25.1691
          25.1635
          25.1594
          25.158
        </DataArray>
      </PointData>
      <CellData>
      </CellData>
      <Points>
        <DataArray type="Float32" NumberOfComponents="3" format="ascii">
          0.039 0.00195 0.0
          0.0377 0.00195 0.0
          0.0364 0.00195 0.0
          0.0351 0.00195 0.0
          0.0338 0.00195 0.0
          0.0325 0.00195 0.0
          0.0312 0.00195 0.0
          0.0299 0.00195 0.0
          0.0286 0.00195 0.0
          0.0273 0.00195 0.0
          0.026 0.00195 0.0
          0.0247 0.00195 0.0
          0.0234 0.00195 0.0
          0.0221 0.00195 0.0
          0.0208 0.00195 0.0
          0.0195 0.00195 0.0
          0.0182 0.00195 0.0
          0.0169 0.00195 0.0
          0.0156 0.00195 0.0
          0.0143 0.00195 0.0
          0.013 0.00195 0.0
          0.0117 0.00195 0.0
          0.0104 0.00195 0.0
          0.0091 0.00195 0.0
          0.0078 0.00195 0.0
          0.0065 0.00195 0.0
          0.0052 0.00195 0.0
          0.0039 0.00195 0.0
          0.0026 0.00195 0.0
          0.0013 0.00195 0.0
          0 0.00195 0.0
          0.039 0.00065 0.0
          0.0377 0.00065 0.0
          0.0364 0.00065 0.0
          0.0351 0.00065 0.0
          0.0338 0.00065 0.0
          0.0325 0.00065 0.0
          0.0312 0.00065 0.0
          0.0299 0.00065 0.0
          0.0286 0.00065 0.0
          0.0273 0.00065 0.0
          0.026 0.00065 0.0
          0.0247 0.00065 0.0
          0.0234 0.00065 0.0
          0.0221 0.00065 0.0
          0.0208 0.00065 0.0
          0.0195 0.00065 0.0
          0.0182 0.00065 0.0
          0.0169 0.00065 0.0
          0.0156 0.00065 0.0
          0.0143 0.00065 0.0
          0.013 0.00065 0.0
          0.0117 0.00065 0.0
          0.0104 0.00065 0.0
          0.0091 0.00065 0.0
          0.0078 0.00065 0.0
          0.0065 0.00065 0.0
          0.0052 0.00065 0.0
          0.0039 0.00065 0.0
          0.0026 0.00065 0.0
          0.0013 0.00065 0.0
          0 0.00065 0.0
          0.039 -0.00065 0.0
          0.0377 -0.00065 0.0
          0.0364 -0.00065 0.0
          0.0351 -0.00065 0.0
          0.0338 -0.00065 0.0
          0.0325 -0.00065 0.0
          0.0312 -0.00065 0.0
          0.0299 -0.00065 0.0
          0.0286 -0.00065 0.0
          0.0273 -0.00065 0.0
          0.026 -0.00065 0.0
          0.0247 -0.00065 0.0
          0.0234 -0.00065 0.0
          0.0221 -0.00065 0.0
          0.0208 -0.00065 0.0
          0.0195 -0.00065 0.0
          0.0182 -0.00065 0.0
          0.0169 -0.00065 0.0
          0.0156 -0.00065 0.0
          0.0143 -0.00065 0.0
          0.013 -0.00065 0.0
          0.0117 -0.00065 0.0
          0.0104 -0.00065 0.0
          0.0091 -0.00065 0.0
          0.0078 -0.00065 0.0
          0.0065 -0.00065 0.0
          0.0052 -0.00065 0.0
          0.0039 -0.00065 0.0
          0.0026 -0.00065 0.0
          0.0013 -0.00065 0.0
          0 -0.00065 0.0
          0.039 -0.00195 0.0
          0.0377 -0.00195 0.0
          0.0364 -0.00195 0.0
          0.0351 -0.00195 0.0
          0.0338 -0.00195 0.0
          0.0325 -0.00195 0.0
          0.0312 -0.00195 0.0
          0.0299 -0.00195 0.0
          0.0286 -0.00195 0.0
          0.0273 -0.00195 0.0
          0.026 -0.00195 0.0
          0.0247 -0.00195 0.0
          0.0234 -0.00195 0.0
          0.0221 -0.00195 0.0
          0.0208 -0.00195 0.0
          0.0195 -0.00195 0.0
          0.0182 -0.00195 0.0
          0.0169 -0.00195 0.0
          0.0156 -0.00195 0.0
          0.0143 -0.00195 0.0
          0.013 -0.00195 0.0
          0.0117 -0.00195 0.0
          0.0104 -0.00195 0.0
          0.0091 -0.00195 0.0
          0.0078 -0.00195 0.0
          0.0065 -0.00195 0.0
          0.0052 -0.00195 0.0
          0.0039 -0.00195 0.0
          0.0026 -0.00195 0.0
          0.0013 -0.00195 0.0
          0 -0.00195 0.0
          0.039 -0.00325 0.0
          0.0377 -0.00325 0.0
          0.0364 -0.00325 0.0
          0.0351 -0.00325 0.0
          0.0338 -0.00325 0.0
          0.0325 -0.00325 0.0
          0.0312 -0.00325 0.0
          0.0299 -0.00325 0.0
          0.0286 -0.00325 0.0
          0.0273 -0.00325 0.0
          0.026 -0.00325 0.0
          0.0247 -0.00325 0.0
          0.0234 -0.00325 0.0
          0.0221 -0.00325 0.0
          0.0208 -0.00325 0.0
          0.0195 -0.00325 0.0
          0.0182 -0.00325 0.0
          0.0169 -0.00325 0.0
          0.0156 -0.00325 0.0
          0.0143 -0.00325 0.0
          0.013 -0.00325 0.0
          0.0117 -0.00325 0.0
          0.0104 -0.00325 0.0
          0.0091 -0.00325 0.0
          0.0078 -0.00325 0.0
          0.0065 -0.00325 0.0
          0.0052 -0.00325 0.0
          0.0039 -0.00325 0.0
          0.0026 -0.00325 0.0
          0.0013 -0.00325 0.0
          0 -0.00325 0.0
          0.039 -0.00455 0.0
          0.0377 -0.00455 0.0
          0.0364 -0.00455 0.0
          0.0351 -0.00455 0.0
          0.0338 -0.00455 0.0
          0.0325 -0.00455 0.0
          0.0312 -0.00455 0.0
          0.0299 -0.00455 0.0
          0.0286 -0.00455 0.0
          0.0273 -0.00455 0.0
          0.026 -0.00455 0.0
          0.0247 -0.00455 0.0
          0.0234 -0.00455 0.0
          0.0221 -0.00455 0.0
          0.0208 -0.00455 0.0
          0.0195 -0.00455 0.0
          0.0182 -0.00455 0.0
          0.0169 -0.00455 0.0
          0.0156 -0.00455 0.0
          0.0143 -0.00455 0.0
          0.013 -0.00455 0.0
          0.0117 -0.00455 0.0
          0.0104 -0.00455 0.0
          0.0091 -0.00455 0.0
          0.0078 -0.00455 0.0
          0.0065 -0.00455 0.0
          0.0052 -0.00455 0.0
          0.0039 -0.00455 0.0
          0.0026 -0.00455 0.0
          0.0013 -0.00455 0.0
          0 -0.00455 0.0
          0.039 -0.00585 0.0
          0.0377 -0.00585 0.0
          0.0364 -0.00585 0.0
          0.0351 -0.00585 0.0
          0.0338 -0.00585 0.0
          0.0325 -0.00585 0.0
          0.0312 -0.00585 0.0
          0.0299 -0.00585 0.0
          0.0286 -0.00585 0.0
          0.0273 -0.00585 0.0
          0.026 -0.00585 0.0
          0.0247 -0.00585 0.0
          0.0234 -0.00585 0.0
          0.0221 -0.00585 0.0
          0.0208 -0.00585 0.0
          0.0195 -0.00585 0.0
          0.0182 -0.00585 0.0
          0.0169 -0.00585 0.0
          0.0156 -0.00585 0.0
          0.0143 -0.00585 0.0
          0.013 -0.00585 0.0
          0.0117 -0.00585 0.0
          0.0104 -0.00585 0.0
          0.0091 -0.00585 0.0
          0.0078 -0.00585 0.0
          0.0065 -0.00585 0.0
          0.0052 -0.00585 0.0
          0.0039 -0.00585 0.0
          0.0026 -0.00585 0.0
          0.0013 -0.00585 0.0
          0 -0.00585 0.0
          0.039 -0.00715 0.0
          0.0377 -0.00715 0.0
          0.0364 -0.00715 0.0
          0.0351 -0.00715 0.0
          0.0338 -0.00715 0.0
          0.0325 -0.00715 0.0
          0.0312 -0.00715 0.0
          0.0299 -0.00715 0.0
          0.0286 -0.00715 0.0
          0.0273 -0.00715 0.0
          0.026 -0.00715 0.0
          0.0247 -0.00715 0.0
          0.0234 -0.00715 0.0
          0.0221 -0.00715 0.0
          0.0208 -0.00715 0.0
          0.0195 -0.00715 0.0
          0.0182 -0.00715 0.0
          0.0169 -0.00715 0.0
          0.0156 -0.00715 0.0
          0.0143 -0.00715 0.0
          0.013 -0.00715 0.0
          0.0117 -0.00715 0.0
          0.0104 -0.00715 0.0
          0.0091 -0.00715 0.0
          0.0078 -0.00715 0.0
          0.0065 -0.00715 0.0
          0.0052 -0.00715 0.0
          0.0039 -0.00715 0.0
          0.0026 -0.00715 0.0
          0.0013 -0.00715 0.0
          0 -0.00715 0.0
          0.039 -0.00845 0.0
          0.0377 -0.00845 0.0
          0.0364 -0.00845 0.0
          0.0351 -0.00845 0.0
          0.0338 -0.00845 0.0
          0.0325 -0.00845 0.0
          0.0312 -0.00845 0.0
          0.0299 -0.00845 0.0
          0.0286 -0.00845 0.0
          0.0273 -0.00845 0.0
          0.026 -0.00845 0.0
          0.0247 -0.00845 0.0
          0.0234 -0.00845 0.0
          0.0221 -0.00845 0.0
          0.0208 -0.00845 0.0
          0.0195 -0.00845 0.0
          0.0182 -0.00845 0.0
          0.0169 -0.00845 0.0
          0.0156 -0.00845 0.0
          0.0143 -0.00845 0.0
          0.013 -0.00845 0.0
          0.0117 -0.00845 0.0
          0.0104 -0.00845 0.0
          0.0091 -0.00845 0.0
          0.0078 -0.00845 0.0
          0.0065 -0.00845 0.0
          0.0052 -0.00845 0.0
          0.0039 -0.00845 0.0
          0.0026 -0.00845 0.0
          0.0013 -0.00845 0.0
          0 -0.00845 0.0
          0.039 -0.00975 0.0
          0.0377 -0.00975 0.0
          0.0364 -0.00975 0.0
          0.0351 -0.00975 0.0
          0.0338 -0.00975 0.0
          0.0325 -0.00975 0.0
          0.0312 -0.00975 0.0
          0.0299 -0.00975 0.0
          0.0286 -0.00975 0.0
          0.0273 -0.00975 0.0
          0.026 -0.00975 0.0
          0.0247 -0.00975 0.0
          0.0234 -0.00975 0.0
          0.0221 -0.00975 0.0
          0.0208 -0.00975 0.0
          0.0195 -0.00975 0.0
          0.0182 -0.00975 0.0
          0.0169 -0.00975 0.0
          0.0156 -0.00975 0.0
          0.0143 -0.00975 0.0
          0.013 -0.00975 0.0
          0.0117 -0.00975 0.0
          0.0104 -0.00975 0.0
          0.0091 -0.00975 0.0
          0.0078 -0.00975 0.0
          0.0065 -0.00975 0.0
          0.0052 -0.00975 0.0
          0.0039 -0.00975 0.0
          0.0026 -0.00975 0.0
          0.0013 -0.00975 0.0
          0 -0.00975 0.0
          0.039 -0.01105 0.0
          0.0377 -0.01105 0.0
          0.0364 -0.01105 0.0
          0.0351 -0.01105 0.0
          0.0338 -0.01105 0.0
          0.0325 -0.01105 0.0
          0.0312 -0.01105 0.0
          0.0299 -0.01105 0.0
          0.0286 -0.01105 0.0
          0.0273 -0.01105 0.0
          0.026 -0.01105 0.0
          0.0247 -0.01105 0.0
          0.0234 -0.01105 0.0
          0.0221 -0.01105 0.0
          0.0208 -0.01105 0.0
          0.0195 -0.01105 0.0
          0.0182 -0.01105 0.0
          0.0169 -0.01105 0.0
          0.0156 -0.01105 0.0
          0.0143 -0.01105 0.0
          0.013 -0.01105 0.0
          0.0117 -0.01105 0.0
          0.0104 -0.01105 0.0
          0.0091 -0.01105 0.0
          0.0078 -0.01105 0.0
          0.0065 -0.01105 0.0
          0.0052 -0.01105 0.0
          0.0039 -0.01105 0.0
          0.0026 -0.01105 0.0
          0.0013 -0.01105 0.0
          0 -0.01105 0.0
          0.039 -0.01235 0.0
          0.0377 -0.01235 0.0
          0.0364 -0.01235 0.0
          0.0351 -0.01235 0.0
          0.0338 -0.01235 0.0
          0.0325 -0.01235 0.0
          0.0312 -0.01235 0.0
          0.0299 -0.01235 0.0
          0.0286 -0.01235 0.0
          0.0273 -0.01235 0.0
          0.026 -0.01235 0.0
          0.0247 -0.01235 0.0
          0.0234 -0.01235 0.0
          0.0221 -0.01235 0.0
          0.0208 -0.01235 0.0
          0.0195 -0.01235 0.0
          0.0182 -0.01235 0.0
          0.0169 -0.01235 0.0
          0.0156 -0.01235 0.0
          0.0143 -0.01235 0.0
          0.013 -0.01235 0.0
          0.0117 -0.01235 0.0
          0.0104 -0.01235 0.0
          0.0091 -0.01235 0.0
          0.0078 -0.01235 0.0
          0.0065 -0.01235 0.0
          0.0052 -0.01235 0.0
          0.0039 -0.01235 0.0
          0.0026 -0.01235 0.0
          0.0013 -0.01235 0.0
          0 -0.01235 0.0
          0.039 -0.01365 0.0
          0.0377 -0.01365 0.0
          0.0364 -0.01365 0.0
          0.0351 -0.01365 0.0
          0.0338 -0.01365 0.0
          0.0325 -0.01365 0.0
          0.0312 -0.01365 0.0
          0.0299 -0.01365 0.0
          0.0286 -0.01365 0.0
          0.0273 -0.01365 0.0
          0.026 -0.01365 0.0
          0.0247 -0.01365 0.0
          0.0234 -0.01365 0.0
          0.0221 -0.01365 0.0
          0.0208 -0.01365 0.0
          0.0195 -0.01365 0.0
          0.0182 -0.01365 0.0
          0.0169 -0.01365 0.0
          0.0156 -0.01365 0.0
          0.0143 -0.01365 0.0
          0.013 -0.01365 0.0
          0.0117 -0.01365 0.0
          0.0104 -0.01365 0.0
          0.0091 -0.01365 0.0
          0.0078 -0.01365 0.0
          0.0065 -0.01365 0.0
          0.0052 -0.01365 0.0
          0.0039 -0.01365 0.0
          0.0026 -0.01365 0.0
          0.0013 -0.01365 0.0
          0 -0.01365 0.0
          0.039 -0.01495 0.0
          0.0377 -0.01495 0.0
          0.0364 -0.01495 0.0
          0.0351 -0.01495 0.0
          0.0338 -0.01495 0.0
          0.0325 -0.01495 0.0
          0.0312 -0.01495 0.0
          0.0299 -0.01495 0.0
          0.0286 -0.01495 0.0
          0.0273 -0.01495 0.0
          0.026 -0.01495 0.0
          0.0247 -0.01495 0.0
          0.0234 -0.01495 0.0
          0.0221 -0.01495 0.0