<?xml version="1.0"?>
<VTKFile type="UnstructuredGrid" version="0.1" byte_order="LittleEndian">
  <UnstructuredGrid>
    <Piece NumberOfPoints="961" NumberOfCells="900">
      <PointData Scalars="Temperature">
        <DataArray type="Float32" Name="Temperature" format="ascii">
          21.0009
          21.0145
          21.0287
          21.0443
          21.0623
          21.0837
          21.1108
          21.1436
          21.18
          21.2127
          21.2366
          21.2492
          21.2544
          21.2558
          21.2563
          21.2564
          21.2563
          21.2558
          21.2544
          21.2492
          21.2366
          21.2127
          21.18
          21.1436
          21.1108
          21.0837
          21.0623
          21.0443
          21.0287
          21.0145
          21.0009
          21.0142
          21.2349
          21.4661
          21.7192
          22.0089
          22.3558
          22.788
          23.3384
          23.9524
          24.5244
          24.9102
          25.1069
          25.1707
          25.1914
          25.1979
          25.1993
          25.1979
          25.1914
          25.1707
          25.1069
          24.9102
          24.5244
          23.9524
          23.3384
          22.788
          22.3558
          22.0089
          21.7192
          21.4661
          21.2349
          21.0142
          21.027
          21.4455
          21.8828
          22.3594
          22.9016
          23.5461
          24.347
          25.3811
          26.8076
          28.0356
          28.8645
          29.0567
          29.1185
          29.1384
          29.1446
          29.146
          29.1446
          29.1384
          29.1185
          29.0567
          28.8645
          28.0356
          26.8076
          25.3811
          24.347
          23.5461
          22.9016
          22.3594
          21.8828
          21.4455
          21.027
          21.0387
          21.6383
          22.2625
          22.938
          23.6982
          24.5897
          25.6825
          27.0989
          29.0399
          33.0971
          33.0976
          33.0978
          33.098
          33.0981
          33.0982
          33.0982
          33.0982
          33.0981
          33.098
          33.0978
          33.0976
          33.0971
          29.0399
          27.0989
          25.6825
          24.5897
          23.6982
          22.938
          22.2625
          21.6383
          21.0387
          21.049
          21.8076
          22.5938
          23.4365
          24.3714
          25.4461
          26.7295
          28.3279
          30.4832
          33.0982
          33.0984
          33.0986
          33.0988
          33.0988
          33.0989
          33.0989
          33.0989
          33.0988
          33.0988
          33.0986
          33.0984
          33.0982
          30.4832
          28.3279
          26.7295
          25.4461
          24.3714
          23.4365
          22.5938
          21.8076
          21.049
          21.0578
          21.9508
          22.8713
          23.8475
          24.9125
          26.1071
          27.4833
          29.1084
          31.007
          33.1001
          33.1002
          33.1004
          33.1005
          33.1006
          33.1006
          33.1006
          33.1006
          33.1006
          33.1005
          33.1004
          33.1002
          33.1001
          31.007
          29.1084
          27.4833
          26.1071
          24.9125
          23.8475
          22.8713
          21.9508
          21.0578
          21.0649
          22.0675
          23.0954
          24.1735
          25.3295
          26.5935
          27.9978
          29.5641
          31.2845
          33.1029
          33.103
          33.1031
          33.1032
          33.1032
          33.1033
          33.1033
          33.1033
          33.1032
          33.1032
          33.1031
          33.103
          33.1029
          31.2845
          29.5641
          27.9978
          26.5935
          25.3295
          24.1735
          23.0954
          22.0675
          21.0649
          21.0706
          22.16
          23.271
          24.4243
          25.641
          26.9417
          28.3428
          29.8502
          31.4501
          33.1066
          33.1067
          33.1068
          33.1068
          33.1069
          33.1069
          33.1069
          33.1069
          33.1069
          33.1068
          33.1068
          33.1067
          33.1066
          31.4501
          29.8502
          28.3428
          26.9417
          25.641
          24.4243
          23.271
          22.16
          21.0706
          21.075
          22.2315
          23.4054
          24.6131
          25.8697
          27.1887
          28.5781
          30.0381
          31.557
          33.1112
          33.1113
          33.1114
          33.1114
          33.1115
          33.1115
          33.1115
          33.1115
          33.1115
          33.1114
          33.1114
          33.1113
          33.1112
          31.557
          30.0381
          28.5781
          27.1887
          25.8697
          24.6131
          23.4054
          22.2315
          21.075
          21.0784
          22.286
          23.5071
          24.7538
          26.0369
          27.3649
          28.742
          30.1666
          31.6299
          33.1168
          33.1169
          33.1169
          33.117
          33.1171
          33.1171
          33.1171
          33.1171
          33.1171
          33.117
          33.1169
          33.1169
          33.1168
          31.6299
          30.1666
          28.742
          27.3649
          26.0369
          24.7538
          23.5071
          22.286
          21.0784
          21.081
          22.3275
          23.5839
          24.8589
          26.16
          27.4927
          28.8592
          30.2577
          31.6824
          33.1233
          33.1234
          33.1235
          33.1235
          33.1236
          33.1236
          33.1236
          33.1236
          33.1236
          33.1235
          33.1235
          33.1234
          33.1233
          31.6824
          30.2577
          28.8592
          27.4927
          26.16
          24.8589
          23.5839
          22.3275
          21.081
          21.0829
          22.3594
          23.6427
          24.9389
          26.2529
          27.5881
          28.946
          30.3254
          31.7223
          33.1308
          33.1309
          33.1309
          33.131
          33.131
          33.1311
          33.1311
          33.1311
          33.131
          33.131
          33.1309
          33.1309
          33.1308
          31.7223
          30.3254
          28.946
          27.5881
          26.2529
          24.9389
          23.6427
          22.3594
          21.0829
          21.0845
          22.3849
          23.6896
          25.0022
          26.3259
          27.6628
          29.0139
          30.3786
          31.7548
          33.1392
          33.1393
          33.1394
          33.1394
          33.1395
          33.1395
          33.1395
          33.1395
          33.1395
          33.1394
          33.1394
          33.1393
          33.1392
          31.7548
          30.3786
          29.0139
          27.6629
          26.3259
          25.0022
          23.6896
          22.3849
          21.0845
          21.0859
          22.4067
          23.7294
          25.0558
          26.3876
          27.7258
          29.0712
          30.4239
          31.7834
          33.1486
          33.1487
          33.1487
          33.1488
          33.1488
          33.1488
          33.1489
          33.1488
          33.1488
          33.1488
          33.1487
          33.1487
          33.1486
          31.7834
          30.4239
          29.0712
          27.7258
          26.3876
          25.0558
          23.7294
          22.4067
          21.0859
          21.0872
          22.427
          23.7666
          25.1059
          26.4449
          27.7841
          29.1243
          30.4663
          31.8109
          33.1589
          33.159
          33.159
          33.1591
          33.1591
          33.1592
          33.1592
          33.1592
          33.1591
          33.1591
          33.159
          33.159
          33.1589
          31.8109
          30.4663
          29.1243
          27.7841
          26.4449
          25.1059
          23.7666
          22.427
          21.0872
          21.0885
          22.4484
          23.8055
          25.1579
          26.5044
          27.8445
          29.1792
          30.5101
          31.8395
          33.1701
          33.1702
          33.1703
          33.1704
          33.1704
          33.1704
          33.1704
          33.1704
          33.1704
          33.1704
          33.1703
          33.1702
          33.1701
          31.8395
          30.5101
          29.1792
          27.8445
          26.5044
          25.1579
          23.8055
          22.4484
          21.0885
          21.09
          22.4732
          23.8507
          25.2182
          26.5728
          27.9136
          29.2416
          30.5596
          31.8715
          33.1823
          33.1824
          33.1825
          33.1826
          33.1826
          33.1827
          33.1827
          33.1827
          33.1826
          33.1826
          33.1825
          33.1824
          33.1823
          31.8715
          30.5596
          29.2416
          27.9136
          26.5728
          25.2182
          23.8507
          22.4732
          21.09
          21.092
          22.5046
          23.9076
          25.2937
          26.6581
          27.999
          29.3181
          30.6195
          31.9095
          33.1955
          33.1956
          33.1957
          33.1957
          33.1958
          33.1959
          33.1959
          33.1959
          33.1958
          33.1957
          33.1957
          33.1956
          33.1955
          31.9095
          30.6195
          29.3181
          27.999
          26.6581
          25.2937
          23.9076
          22.5046
          21.092
          21.0946
          22.5468
          23.9837
          25.394
          26.7703
          28.1103
          29.4165
          30.6954
          31.9562
          33.2096
          33.2096
          33.2097
          33.2098
          33.2099
          33.21
          33.21
          33.21
          33.2099
          33.2098
          33.2097
          33.2096
          33.2096
          31.9562
          30.6954
          29.4165
          28.1103
          26.7703
          25.394
          23.9837
          22.5468
          21.0946
          21.0984
          22.6056
          24.0894
          25.5319
          26.9228
          28.2596
          29.5467
          30.7942
          32.0151
          33.2245
          33.2246
          33.2248
          33.2249
          33.225
          33.2251
          33.2252
          33.2251
          33.225
          33.2249
          33.2248
          33.2246
          33.2245
          32.0151
          30.7942
          29.5467
          28.2596
          26.9228
          25.5319
          24.0894
          22.6056
          21.0984
          21.1034
          22.6905
          24.2402
          25.7264
          27.1346
          28.4633
          29.7214
          30.9242
          32.0904
          33.2404
          33.2405
          33.2407
          33.2409
          33.2411
          33.2413
          33.2413
          33.2413
          33.2411
          33.2409
          33.2407
          33.2405
          33.2404
          32.0904
          30.9242
          29.7214
          28.4633
          27.1346
          25.7264
          24.2402
          22.6905
          21.1034
          21.113
          22.8155
          24.4609
          26.0054
          27.4319
          28.743
          29.956
          31.0952
          32.1868
          33.2571
          33.2573
          33.2575
          33.2579
          33.2582
          33.2584
          33.2585
          33.2584
          33.2582
          33.2579
          33.2575
          33.2573
          33.2571
          32.1868
          31.0952
          29.956
          28.743
          27.4319
          26.0054
          24.4609
          22.8155
          21.113
          21.1176
          23.0099
          24.7909
          26.4127
          27.8519
          29.1261
          30.2687
          31.3179
          32.3091
          33.2746
          33.2748
          33.2752
          33.2758
          33.2763
          33.2767
          33.2768
          33.2767
          33.2763
          33.2758
          33.2752
          33.2748
          33.2746
          32.3091
          31.3179
          30.2687
          29.1261
          27.8519
          26.4127
          24.7909
          23.0099
          21.1176
          21.1714
          23.3057
          25.3066
          27.015
          28.4457
          29.6442
          30.6775
          31.6016
          32.4612
          33.2927
          33.293
          33.2937
          33.2946
          33.2955
          33.2961
          33.2964
          33.2961
          33.2955
          33.2946
          33.2937
          33.293
          33.2927
          32.4612
          31.6016
          30.6775
          29.6442
          28.4457
          27.015
          25.3066
          23.3057
          21.1714
          21.0544
          23.8774
          26.1207
          27.9262
          29.2729
          30.3263
          31.1954
          31.9519
          32.6448
          33.3112
          33.3117
          33.3129
          33.3145
          33.3159
          33.317
          33.3173
          33.317
          33.3159
          33.3145
          33.3129
          33.3117
          33.3112
          32.6448
          31.9519
          31.1954
          30.3263
          29.2729
          27.9262
          26.1207
          23.8774
          21.0544
          21.7961
          24.6619
          27.6057
          29.2735
          30.3785
          31.1844
          31.8234
          32.3667
          32.8583
          33.3296
          33.3305
          33.3326
          33.3353
          33.3378
          33.3394
          33.34
          33.3394
          33.3378
          33.3353
          33.3326
          33.3305
          33.3296
          32.8583
          32.3667
          31.8234
          31.1844
          30.3785
          29.2735
          27.6057
          24.6619
          21.7961
          18.9597
          27.8506
          30.0356
          31.1082
          31.7504
          32.1977
          32.5439
          32.8346
          33.0956
          33.347
          33.3487
          33.3529
          33.3575
          33.3615
          33.364
          33.3649
          33.364
          33.3615
          33.3575
          33.3529
          33.3487
          33.347
          33.0956
          32.8346
          32.5439
          32.1977
          31.7503
          31.1082
          30.0356
          27.8506
          18.9597
          33.2359
          33.2528
          33.2656
          33.2781
          33.2911
          33.3049
          33.3194
          33.3346
          33.3495
          33.36
          33.3656
          33.3739
          33.3816
          33.3875
          33.3912
          33.3924
          33.3912
          33.3875
          33.3816
          33.3739
          33.3656
          33.36
          33.3495
          33.3346
          33.3194
          33.3049
          33.2911
          33.2781
          33.2656
          33.2528
          33.2359
          33.2426
          33.2544
          33.2662
          33.2783
          33.2912
          33.305
          33.3196
          33.335
          33.3507
          33.3665
          33.3822
          33.3967
          33.4087
          33.4169
          33.4218
          33.4233
          33.4218
          33.4169
          33.4087
          33.3967
          33.3822
          33.3665
          33.3507
          33.335
          33.3196
          33.305
          33.2912
          33.2783
          33.2662
          33.2544
          33.2426
          33.2501
          33.2575
          33.2672
          33.2787
          33.2914
          33.3051
          33.3199
          33.3358
          33.3533
          33.3737
          33.3997
          33.4243
          33.4405
          33.4507
          33.4565
          33.4583
          33.4565
          33.4507
          33.4405
          33.4243
          33.3997
          33.3737
          33.3533
          33.3358
          33.3199
          33.3051
          33.2914
          33.2787
          33.2672
          33.2575
          33.2501
          33.2556
          33.2588
          33.2677
          33.2789
          33.2915
          33.3052
          33.32
          33.3362
          33.3545
          33.3768
          33.409
          33.4398
          33.4578
          33.4688
          33.4749
          33.4769
          33.4749
          33.4688
          33.4578
          33.4398
          33.409
          33.3768
          33.3545
          33.3362
          33.32
          33.3052
          33.2915
          33.2789
          33.2677
          33.2588
          33.2556
        </DataArray>
      </PointData>
      <CellData>
      </CellData>
      <Points>
        <DataArray type="Float32" NumberOfComponents="3" format="ascii">
          0.039 0.00195 0.0
          0.0377 0.00195 0.0
          0.0364 0.00195 0.0
          0.0351 0.00195 0.0
          0.0338 0.00195 0.0
          0.0325 0.00195 0.0
          0.0312 0.00195 0.0
          0.0299 0.00195 0.0
          0.0286 0.00195 0.0
          0.0273 0.00195 0.0
          0.026 0.00195 0.0
          0.0247 0.00195 0.0
          0.0234 0.00195 0.0
          0.0221 0.00195 0.0
          0.0208 0.00195 0.0
          0.0195 0.00195 0.0
          0.0182 0.00195 0.0
          0.0169 0.00195 0.0
          0.0156 0.00195 0.0
          0.0143 0.00195 0.0
          0.013 0.00195 0.0
          0.0117 0.00195 0.0
          0.0104 0.00195 0.0
          0.0091 0.00195 0.0
          0.0078 0.00195 0.0
          0.0065 0.00195 0.0
          0.0052 0.00195 0.0
          0.0039 0.00195 0.0
          0.0026 0.00195 0.0
          0.0013 0.00195 0.0
          0 0.00195 0.0
          0.039 0.00065 0.0
          0.0377 0.00065 0.0
          0.0364 0.00065 0.0
          0.0351 0.00065 0.0
          0.0338 0.00065 0.0
          0.0325 0.00065 0.0
          0.0312 0.00065 0.0
          0.0299 0.00065 0.0
          0.0286 0.00065 0.0
          0.0273 0.00065 0.0
          0.026 0.00065 0.0
          0.0247 0.00065 0.0
          0.0234 0.00065 0.0
          0.0221 0.00065 0.0
          0.0208 0.00065 0.0
          0.0195 0.00065 0.0
          0.0182 0.00065 0.0
          0.0169 0.00065 0.0
          0.0156 0.00065 0.0
          0.0143 0.00065 0.0
          0.013 0.00065 0.0
          0.0117 0.00065 0.0
          0.0104 0.00065 0.0
          0.0091 0.00065 0.0
          0.0078 0.00065 0.0
          0.0065 0.00065 0.0
          0.0052 0.00065 0.0
          0.0039 0.00065 0.0
          0.0026 0.00065 0.0
          0.0013 0.00065 0.0
          0 0.00065 0.0
          0.039 -0.00065 0.0
          0.0377 -0.00065 0.0
          0.0364 -0.00065 0.0
          0.0351 -0.00065 0.0
          0.0338 -0.00065 0.0
          0.0325 -0.00065 0.0
          0.0312 -0.00065 0.0
          0.0299 -0.00065 0.0
          0.0286 -0.00065 0.0
          0.0273 -0.00065 0.0
          0.026 -0.00065 0.0
          0.0247 -0.00065 0.0
          0.0234 -0.00065 0.0
          0.0221 -0.00065 0.0
          0.0208 -0.00065 0.0
          0.0195 -0.00065 0.0
          0.0182 -0.00065 0.0
          0.0169 -0.00065 0.0
          0.0156 -0.00065 0.0
          0.0143 -0.00065 0.0
          0.013 -0.00065 0.0
          0.0117 -0.00065 0.0
          0.0104 -0.00065 0.0
          0.0091 -0.00065 0.0
          0.0078 -0.00065 0.0
          0.0065 -0.00065 0.0
          0.0052 -0.00065 0.0
          0.0039 -0.00065 0.0
          0.0026 -0.00065 0.0
          0.0013 -0.00065 0.0
          0 -0.00065 0.0
          0.039 -0.00195 0.0
          0.0377 -0.00195 0.0
          0.0364 -0.00195 0.0
          0.0351 -0.00195 0.0
          0.0338 -0.00195 0.0
          0.0325 -0.00195 0.0
          0.0312 -0.00195 0.0
          0.0299 -0.00195 0.0
          0.0286 -0.00195 0.0
          0.0273 -0.00195 0.0
          0.026 -0.00195 0.0
          0.0247 -0.00195 0.0
          0.0234 -0.00195 0.0
          0.0221 -0.00195 0.0
          0.0208 -0.00195 0.0
          0.0195 -0.00195 0.0
          0.0182 -0.00195 0.0
          0.0169 -0.00195 0.0
          0.0156 -0.00195 0.0
          0.0143 -0.00195 0.0
          0.013 -0.00195 0.0
          0.0117 -0.00195 0.0
          0.0104 -0.00195 0.0
          0.0091 -0.00195 0.0
          0.0078 -0.00195 0.0
          0.0065 -0.00195 0.0
          0.0052 -0.00195 0.0
          0.0039 -0.00195 0.0
          0.0026 -0.00195 0.0
          0.0013 -0.00195 0.0
          0 -0.00195 0.0
          0.039 -0.00325 0.0
          0.0377 -0.00325 0.0
          0.0364 -0.00325 0.0
          0.0351 -0.00325 0.0
          0.0338 -0.00325 0.0
          0.0325 -0.00325 0.0
          0.0312 -0.00325 0.0
          0.0299 -0.00325 0.0
          0.0286 -0.00325 0.0
          0.0273 -0.00325 0.0
          0.026 -0.00325 0.0
          0.0247 -0.00325 0.0
          0.0234 -0.00325 0.0
          0.0221 -0.00325 0.0
          0.0208 -0.00325 0.0
          0.0195 -0.00325 0.0
          0.0182 -0.00325 0.0
          0.0169 -0.00325 0.0
          0.0156 -0.00325 0.0
          0.0143 -0.00325 0.0
          0.013 -0.00325 0.0
          0.0117 -0.00325 0.0
          0.0104 -0.00325 0.0
          0.0091 -0.00325 0.0
          0.0078 -0.00325 0.0
          0.0065 -0.00325 0.0
          0.0052 -0.00325 0.0
          0.0039 -0.00325 0.0
          0.0026 -0.00325 0.0
          0.0013 -0.00325 0.0
          0 -0.00325 0.0
          0.039 -0.00455 0.0
          0.0377 -0.00455 0.0
          0.0364 -0.00455 0.0
          0.0351 -0.00455 0.0
          0.0338 -0.00455 0.0
          0.0325 -0.00455 0.0
          0.0312 -0.00455 0.0
          0.0299 -0.00455 0.0
          0.0286 -0.00455 0.0
          0.0273 -0.00455 0.0
          0.026 -0.00455 0.0
          0.0247 -0.00455 0.0
          0.0234 -0.00455 0.0
          0.0221 -0.00455 0.0
          0.0208 -0.00455 0.0
          0.0195 -0.00455 0.0
          0.0182 -0.00455 0.0
          0.0169 -0.00455 0.0
          0.0156 -0.00455 0.0
          0.0143 -0.00455 0.0
          0.013 -0.00455 0.0
          0.0117 -0.00455 0.0
          0.0104 -0.00455 0.0
          0.0091 -0.00455 0.0
          0.0078 -0.00455 0.0
          0.0065 -0.00455 0.0
          0.0052 -0.00455 0.0
          0.0039 -0.00455 0.0
          0.0026 -0.00455 0.0
          0.0013 -0.00455 0.0
          0 -0.00455 0.0
          0.039 -0.00585 0.0
          0.0377 -0.00585 0.0
          0.0364 -0.00585 0.0
          0.0351 -0.00585 0.0
          0.0338 -0.00585 0.0
          0.0325 -0.00585 0.0
          0.0312 -0.00585 0.0
          0.0299 -0.00585 0.0
          0.0286 -0.00585 0.0
          0.0273 -0.00585 0.0
          0.026 -0.00585 0.0
          0.0247 -0.00585 0.0
          0.0234 -0.00585 0.0
          0.0221 -0.00585 0.0
          0.0208 -0.00585 0.0
          0.0195 -0.00585 0.0
          0.0182 -0.00585 0.0
          0.0169 -0.00585 0.0
          0.0156 -0.00585 0.0
          0.0143 -0.00585 0.0
          0.013 -0.00585 0.0
          0.0117 -0.00585 0.0
          0.0104 -0.00585 0.0
          0.0091 -0.00585 0.0
          0.0078 -0.00585 0.0
          0.0065 -0.00585 0.0
          0.0052 -0.00585 0.0
          0.0039 -0.00585 0.0
          0.0026 -0.00585 0.0
          0.0013 -0.00585 0.0
          0 -0.00585 0.0
          0.039 -0.00715 0.0
          0.0377 -0.00715 0.0
          0.0364 -0.00715 0.0
          0.0351 -0.00715 0.0
          0.0338 -0.00715 0.0
          0.0325 -0.00715 0.0
          0.0312 -0.00715 0.0
          0.0299 -0.00715 0.0
          0.0286 -0.00715 0.0
          0.0273 -0.00715 0.0
          0.026 -0.00715 0.0
          0.0247 -0.00715 0.0
          0.0234 -0.00715 0.0
          0.0221 -0.00715 0.0
          0.0208 -0.00715 0.0
          0.0195 -0.00715 0.0
          0.0182 -0.00715 0.0
          0.0169 -0.00715 0.0
          0.0156 -0.00715 0.0
          0.0143 -0.00715 0.0
          0.013 -0.00715 0.0
          0.0117 -0.00715 0.0
          0.0104 -0.00715 0.0
          0.0091 -0.00715 0.0
          0.0078 -0.00715 0.0
          0.0065 -0.00715 0.0
          0.0052 -0.00715 0.0
          0.0039 -0.00715 0.0
          0.0026 -0.00715 0.0
          0.0013 -0.00715 0.0
          0 -0.00715 0.0
          0.039 -0.00845 0.0
          0.0377 -0.00845 0.0
          0.0364 -0.00845 0.0
          0.0351 -0.00845 0.0
          0.0338 -0.00845 0.0
          0.0325 -0.00845 0.0
          0.0312 -0.00845 0.0
          0.0299 -0.00845 0.0
          0.0286 -0.00845 0.0
          0.0273 -0.00845 0.0
          0.026 -0.00845 0.0
          0.0247 -0.00845 0.0
          0.0234 -0.00845 0.0
          0.0221 -0.00845 0.0
          0.0208 -0.00845 0.0
          0.0195 -0.00845 0.0
          0.0182 -0.00845 0.0
          0.0169 -0.00845 0.0
          0.0156 -0.00845 0.0
          0.0143 -0.00845 0.0
          0.013 -0.00845 0.0
          0.0117 -0.00845 0.0
          0.0104 -0.00845 0.0
          0.0091 -0.00845 0.0
          0.0078 -0.00845 0.0
          0.0065 -0.00845 0.0
          0.0052 -0.00845 0.0
          0.0039 -0.00845 0.0
          0.0026 -0.00845 0.0
          0.0013 -0.00845 0.0
          0 -0.00845 0.0
          0.039 -0.00975 0.0
          0.0377 -0.00975 0.0
          0.0364 -0.00975 0.0
          0.0351 -0.00975 0.0
          0.0338 -0.00975 0.0
          0.0325 -0.00975 0.0
          0.0312 -0.00975 0.0
          0.0299 -0.00975 0.0
          0.0286 -0.00975 0.0
          0.0273 -0.00975 0.0
          0.026 -0.00975 0.0
          0.0247 -0.00975 0.0
          0.0234 -0.00975 0.0
          0.0221 -0.00975 0.0
          0.0208 -0.00975 0.0
          0.0195 -0.00975 0.0
          0.0182 -0.00975 0.0
          0.0169 -0.00975 0.0
          0.0156 -0.00975 0.0
          0.0143 -0.00975 0.0
          0.013 -0.00975 0.0
          0.0117 -0.00975 0.0
          0.0104 -0.00975 0.0
          0.0091 -0.00975 0.0
          0.0078 -0.00975 0.0
          0.0065 -0.00975 0.0
          0.0052 -0.00975 0.0
          0.0039 -0.00975 0.0
          0.0026 -0.00975 0.0
          0.0013 -0.00975 0.0
          0 -0.00975 0.0
          0.039 -0.01105 0.0
          0.0377 -0.01105 0.0
          0.0364 -0.01105 0.0
          0.0351 -0.01105 0.0
          0.0338 -0.01105 0.0
          0.0325 -0.01105 0.0
          0.0312 -0.01105 0.0
          0.0299 -0.01105 0.0
          0.0286 -0.01105 0.0
          0.0273 -0.01105 0.0
          0.026 -0.01105 0.0
          0.0247 -0.01105 0.0
          0.0234 -0.01105 0.0
          0.0221 -0.01105 0.0
          0.0208 -0.01105 0.0
          0.0195 -0.01105 0.0
          0.0182 -0.01105 0.0
          0.0169 -0.01105 0.0
          0.0156 -0.01105 0.0
          0.0143 -0.01105 0.0
          0.013 -0.01105 0.0
          0.0117 -0.01105 0.0
          0.0104 -0.01105 0.0
          0.0091 -0.01105 0.0
          0.0078 -0.01105 0.0
          0.0065 -0.01105 0.0
          0.0052 -0.01105 0.0
          0.0039 -0.01105 0.0
          0.0026 -0.01105 0.0
          0.0013 -0.01105 0.0
          0 -0.01105 0.0
          0.039 -0.01235 0.0
          0.0377 -0.01235 0.0
          0.0364 -0.01235 0.0
          0.0351 -0.01235 0.0
          0.0338 -0.01235 0.0
          0.0325 -0.01235 0.0
          0.0312 -0.01235 0.0
          0.0299 -0.01235 0.0
          0.0286 -0.01235 0.0
          0.0273 -0.01235 0.0
          0.026 -0.01235 0.0
          0.0247 -0.01235 0.0
          0.0234 -0.01235 0.0
          0.0221 -0.01235 0.0
          0.0208 -0.01235 0.0
          0.0195 -0.01235 0.0
          0.0182 -0.01235 0.0
          0.0169 -0.01235 0.0
          0.0156 -0.01235 0.0
          0.0143 -0.01235 0.0
          0.013 -0.01235 0.0
          0.0117 -0.01235 0.0
          0.0104 -0.01235 0.0
          0.0091 -0.01235 0.0
          0.0078 -0.01235 0.0
          0.0065 -0.01235 0.0
          0.0052 -0.01235 0.0
          0.0039 -0.01235 0.0
          0.0026 -0.01235 0.0
          0.0013 -0.01235 0.0
          0 -0.01235 0.0
          0.039 -0.01365 0.0
          0.0377 -0.01365 0.0
          0.0364 -0.01365 0.0
          0.0351 -0.01365 0.0
          0.0338 -0.01365 0.0
          0.0325 -0.01365 0.0
          0.0312 -0.01365 0.0
          0.0299 -0.01365 0.0
          0.0286 -0.01365 0.0
          0.0273 -0.01365 0.0
          0.026 -0.01365 0.0
          0.0247 -0.01365 0.0
          0.0234 -0.01365 0.0
          0.0221 -0.01365 0.0
          0.0208 -0.01365 0.0
          0.0195 -0.01365 0.0
          0.0182 -0.01365 0.0
          0.0169 -0.01365 0.0
          0.0156 -0.01365 0.0
          0.0143 -0.01365 0.0
          0.013 -0.01365 0.0
          0.0117 -0.01365 0.0
          0.0104 -0.01365 0.0
          0.0091 -0.01365 0.0
          0.0078 -0.01365 0.0
          0.0065 -0.01365 0.0
          0.0052 -0.01365 0.0
          0.0039 -0.01365 0.0
          0.0026 -0.01365 0.0
          0.0013 -0.01365 0.0
          0 -0.01365 0.0
          0.039 -0.01495 0.0
          0.0377 -0.01495 0.0
          0.0364 -0.01495 0.0
          0.0351 -0.01495 0.0
          0.0338 -0.01495 0.0
          0.0325 -0.01495 0.0
          0.0312 -0.01495 0.0
          0.0299 -0.01495 0.0
          0.0286 -0.01495 0.0
          0.0273 -0.01495 0.0
          0.026 -0.01495 0.0
          0.0247 -0.01495 0.0
          0.0234 -0.01495 0.0
          0.0221 -0.01495 0.0