<?xml version="1.0"?>
<VTKFile type="UnstructuredGrid" version="0.1" byte_order="LittleEndian">
  <UnstructuredGrid>
    <Piece NumberOfPoints="961" NumberOfCells="900">
      <PointData Scalars="Temperature">
        <DataArray type="Float32" Name="Temperature" format="ascii">
          21.0004
          21.0064
          21.0126
          21.0195
          21.0274
          21.0369
          21.0488
          21.0633
          21.0794
          21.0939
          21.1045
          21.1101
          21.1124
          21.113
          21.1132
          21.1133
          21.1132
          21.113
          21.1124
          21.1101
          21.1045
          21.0939
          21.0794
          21.0633
          21.0488
          21.0369
          21.0274
          21.0195
          21.0126
          21.0064
          21.0004
          21.0063
          21.1032
          21.2049
          21.3162
          21.4439
          21.597
          21.788
          22.0314
          22.3032
          22.5564
          22.7273
          22.8144
          22.8426
          22.8518
          22.8546
          22.8553
          22.8546
          22.8518
          22.8426
          22.8144
          22.7273
          22.5564
          22.3032
          22.0314
          21.788
          21.597
          21.4439
          21.3162
          21.2049
          21.1032
          21.0063
          21.0119
          21.1958
          21.388
          21.5978
          21.8367
          22.1211
          22.4751
          22.9327
          23.5643
          24.1083
          24.4755
          24.5606
          24.588
          24.5968
          24.5995
          24.6002
          24.5995
          24.5968
          24.588
          24.5606
          24.4755
          24.1083
          23.5643
          22.9327
          22.4751
          22.1211
          21.8367
          21.5978
          21.388
          21.1958
          21.0119
          21.017
          21.2805
          21.555
          21.8523
          22.1873
          22.5808
          23.0639
          23.6908
          24.5508
          26.3493
          26.3495
          26.3496
          26.3497
          26.3497
          26.3497
          26.3497
          26.3497
          26.3497
          26.3497
          26.3496
          26.3495
          26.3493
          24.5508
          23.6908
          23.0639
          22.5808
          22.1873
          21.8523
          21.555
          21.2805
          21.017
          21.0215
          21.355
          21.7007
          22.0716
          22.4837
          22.9581
          23.5256
          24.2334
          25.189
          26.3501
          26.3501
          26.3502
          26.3503
          26.3503
          26.3504
          26.3504
          26.3504
          26.3503
          26.3503
          26.3502
          26.3501
          26.3501
          25.189
          24.2334
          23.5256
          22.9581
          22.4837
          22.0716
          21.7007
          21.355
          21.0215
          21.0254
          21.418
          21.8228
          22.2526
          22.7222
          23.2496
          23.8583
          24.5783
          25.421
          26.3518
          26.3519
          26.3519
          26.352
          26.352
          26.352
          26.352
          26.352
          26.352
          26.352
          26.3519
          26.3519
          26.3518
          25.421
          24.5783
          23.8583
          23.2496
          22.7222
          22.2526
          21.8228
          21.418
          21.0254
          21.0285
          21.4694
          21.9216
          22.3964
          22.9061
          23.4645
          24.0858
          24.7803
          25.5446
          26.3546
          26.3546
          26.3547
          26.3547
          26.3547
          26.3548
          26.3548
          26.3548
          26.3547
          26.3547
          26.3547
          26.3546
          26.3546
          25.5446
          24.7803
          24.0858
          23.4645
          22.9061
          22.3964
          21.9216
          21.4694
          21.0285
          21.0311
          21.5102
          21.9992
          22.5073
          23.044
          23.6187
          24.239
          24.9078
          25.6194
          26.3584
          26.3584
          26.3585
          26.3585
          26.3585
          26.3585
          26.3585
          26.3585
          26.3585
          26.3585
          26.3585
          26.3584
          26.3584
          25.6194
          24.9078
          24.239
          23.6187
          23.044
          22.5073
          21.9992
          21.5102
          21.0311
          21.033
          21.5419
          22.0588
          22.5911
          23.1457
          23.7287
          24.3443
          24.9926
          25.6689
          26.3632
          26.3632
          26.3633
          26.3633
          26.3633
          26.3633
          26.3633
          26.3633
          26.3633
          26.3633
          26.3633
          26.3632
          26.3632
          25.6689
          24.9926
          24.3443
          23.7287
          23.1457
          22.5911
          22.0588
          21.5419
          21.033
          21.0345
          21.5663
          22.1042
          22.6539
          23.2205
          23.808
          24.4185
          25.0516
          25.7039
          26.3691
          26.3691
          26.3691
          26.3692
          26.3692
          26.3692
          26.3692
          26.3692
          26.3692
          26.3692
          26.3691
          26.3691
          26.3691
          25.7039
          25.0516
          24.4185
          23.808
          23.2205
          22.6539
          22.1042
          21.5663
          21.0345
          21.0357
          21.5849
          22.1388
          22.7014
          23.2764
          23.8663
          24.4726
          25.0948
          25.7306
          26.3759
          26.376
          26.376
          26.376
          26.3761
          26.3761
          26.3761
          26.3761
          26.3761
          26.376
          26.376
          26.376
          26.3759
          25.7306
          25.0948
          24.4726
          23.8663
          23.2764
          22.7014
          22.1388
          21.5849
          21.0357
          21.0366
          21.5995
          22.1657
          22.7381
          23.3192
          23.9108
          24.5139
          25.1281
          25.7522
          26.3839
          26.3839
          26.3839
          26.384
          26.384
          26.384
          26.384
          26.384
          26.384
          26.384
          26.3839
          26.3839
          26.3839
          25.7522
          25.1281
          24.5139
          23.9108
          23.3192
          22.7381
          22.1657
          21.5995
          21.0366
          21.0373
          21.6113
          22.1875
          22.7677
          23.3537
          23.9466
          24.5472
          25.1556
          25.7712
          26.3928
          26.3929
          26.3929
          26.3929
          26.393
          26.393
          26.393
          26.393
          26.393
          26.3929
          26.3929
          26.3929
          26.3928
          25.7712
          25.1556
          24.5472
          23.9466
          23.3537
          22.7677
          22.1875
          21.6113
          21.0373
          21.0379
          21.6216
          22.2064
          22.7934
          23.3835
          23.9776
          24.5764
          25.1802
          25.789
          26.4028
          26.4029
          26.4029
          26.4029
          26.403
          26.403
          26.403
          26.403
          26.403
          26.4029
          26.4029
          26.4029
          26.4028
          25.789
          25.1802
          24.5764
          23.9776
          23.3835
          22.7934
          22.2064
          21.6216
          21.0379
          21.0386
          21.6314
          22.2244
          22.8177
          23.4118
          24.0071
          24.6043
          25.204
          25.8069
          26.4139
          26.4139
          26.4139
          26.414
          26.414
          26.414
          26.414
          26.414
          26.414
          26.414
          26.4139
          26.4139
          26.4139
          25.8069
          25.204
          24.6043
          24.0071
          23.4118
          22.8177
          22.2244
          21.6314
          21.0386
          21.0392
          21.6417
          22.2433
          22.8433
          23.4415
          24.038
          24.6335
          25.229
          25.826
          26.4259
          26.426
          26.426
          26.426
          26.4261
          26.4261
          26.4261
          26.4261
          26.4261
          26.426
          26.426
          26.426
          26.4259
          25.826
          25.229
          24.6335
          24.038
          23.4415
          22.8433
          22.2433
          21.6417
          21.0392
          21.04
          21.6538
          22.2653
          22.8729
          23.4756
          24.0732
          24.6666
          25.2572
          25.8471
          26.439
          26.4391
          26.4391
          26.4391
          26.4392
          26.4392
          26.4392
          26.4392
          26.4392
          26.4391
          26.4391
          26.4391
          26.439
          25.8471
          25.2572
          24.6666
          24.0732
          23.4756
          22.8729
          22.2653
          21.6538
          21.04
          21.0409
          21.6689
          22.2929
          22.9098
          23.5177
          24.1163
          24.7065
          25.2905
          25.8715
          26.4532
          26.4532
          26.4532
          26.4533
          26.4533
          26.4534
          26.4534
          26.4534
          26.4533
          26.4533
          26.4532
          26.4532
          26.4532
          25.8715
          25.2905
          24.7065
          24.1163
          23.5177
          22.9098
          22.2929
          21.6689
          21.0409
          21.0421
          21.689
          22.3293
          22.9581
          23.5724
          24.1715
          24.7569
          25.3317
          25.9004
          26.4683
          26.4683
          26.4684
          26.4685
          26.4685
          26.4686
          26.4686
          26.4686
          26.4685
          26.4685
          26.4684
          26.4683
          26.4683
          25.9004
          25.3317
          24.7569
          24.1715
          23.5724
          22.9581
          22.3293
          21.689
          21.0421
          21.0439
          21.7167
          22.3793
          23.0237
          23.6457
          24.2444
          24.8221
          25.3837
          25.9354
          26.4844
          26.4845
          26.4846
          26.4847
          26.4848
          26.4848
          26.4849
          26.4848
          26.4848
          26.4847
          26.4846
          26.4845
          26.4844
          25.9354
          25.3837
          24.8221
          24.2444
          23.6457
          23.0237
          22.3793
          21.7167
          21.0439
          21.0462
          21.7564
          22.4499
          23.1153
          23.7462
          24.3424
          24.908
          25.4504
          25.9785
          26.5016
          26.5016
          26.5018
          26.5019
          26.5021
          26.5022
          26.5022
          26.5022
          26.5021
          26.5019
          26.5018
          26.5016
          26.5016
          25.9785
          25.4504
          24.908
          24.3424
          23.7462
          23.1153
          22.4499
          21.7564
          21.0462
          21.0507
          21.8144
          22.5526
          23.2456
          23.886
          24.4753
          25.0217
          25.5363
          26.0316
          26.5197
          26.5197
          26.5199
          26.5202
          26.5205
          26.5206
          26.5207
          26.5206
          26.5205
          26.5202
          26.5199
          26.5197
          26.5197
          26.0316
          25.5363
          25.0217
          24.4753
          23.886
          23.2456
          22.5526
          21.8144
          21.0507
          21.0529
          21.9041
          22.7051
          23.4346
          24.082
          24.6558
          25.1714
          25.6463
          26.0971
          26.5386
          26.5388
          26.5391
          26.5395
          26.54
          26.5403
          26.5404
          26.5403
          26.54
          26.5395
          26.5391
          26.5388
          26.5386
          26.0971
          25.6463
          25.1714
          24.6558
          24.082
          23.4346
          22.7051
          21.9041
          21.0529
          21.0774
          22.04
          22.9424
          23.7126
          24.3576
          24.8983
          25.3654
          25.7847
          26.1767
          26.5584
          26.5586
          26.5592
          26.5599
          26.5606
          26.5611
          26.5613
          26.5611
          26.5606
          26.5599
          26.5592
          26.5586
          26.5584
          26.1767
          25.7847
          25.3654
          24.8983
          24.3576
          23.7126
          22.9424
          22.04
          21.0774
          21.0243
          22.3016
          23.3157
          24.1317
          24.7401
          25.2163
          25.6101
          25.9542
          26.2713
          26.5787
          26.5791
          26.58
          26.5813
          26.5825
          26.5833
          26.5836
          26.5833
          26.5825
          26.5813
          26.58
          26.5791
          26.5787
          26.2713
          25.9542
          25.6101
          25.2163
          24.7401
          24.1317
          23.3157
          22.3016
          21.0243
          21.3617
          22.6602
          23.9947
          24.7499
          25.2502
          25.6155
          25.906
          26.1542
          26.3803
          26.5993
          26.6
          26.6017
          26.6038
          26.6058
          26.6072
          26.6077
          26.6072
          26.6058
          26.6038
          26.6017
          26.6
          26.5993
          26.3803
          26.1542
          25.906
          25.6155
          25.2502
          24.7499
          23.9947
          22.6602
          21.3617
          20.0719
          24.1125
          25.1042
          25.591
          25.8829
          26.087
          26.2459
          26.3802
          26.5014
          26.6194
          26.6207
          26.6238
          26.6276
          26.6309
          26.633
          26.6337
          26.633
          26.6309
          26.6276
          26.6238
          26.6207
          26.6194
          26.5014
          26.3802
          26.2459
          26.087
          25.8829
          25.591
          25.1042
          24.1125
          20.0719
          26.5646
          26.5725
          26.5793
          26.5864
          26.5944
          26.6034
          26.6132
          26.6236
          26.6336
          26.6376
          26.6402
          26.6467
          26.6531
          26.6582
          26.6613
          26.6624
          26.6613
          26.6582
          26.6531
          26.6467
          26.6402
          26.6376
          26.6336
          26.6236
          26.6132
          26.6034
          26.5944
          26.5864
          26.5793
          26.5725
          26.5646
          26.5676
          26.5733
          26.5796
          26.5866
          26.5945
          26.6034
          26.6133
          26.624
          26.635
          26.6465
          26.6588
          26.6709
          26.6813
          26.6885
          26.6927
          26.6941
          26.6927
          26.6885
          26.6813
          26.6709
          26.6588
          26.6465
          26.635
          26.624
          26.6133
          26.6034
          26.5945
          26.5866
          26.5796
          26.5733
          26.5676
          26.571
          26.5747
          26.58
          26.5867
          26.5946
          26.6036
          26.6137
          26.625
          26.6381
          26.6546
          26.6773
          26.6994
          26.7138
          26.7229
          26.728
          26.7296
          26.728
          26.7229
          26.7138
          26.6994
          26.6773
          26.6546
          26.6381
          26.625
          26.6137
          26.6036
          26.5946
          26.5867
          26.58
          26.5747
          26.571
          26.5735
          26.5753
          26.5802
          26.5868
          26.5947
          26.6036
          26.6138
          26.6255
          26.6395
          26.6579
          26.687
          26.7152
          26.7314
          26.7412
          26.7466
          26.7483
          26.7466
          26.7412
          26.7314
          26.7152
          26.687
          26.6579
          26.6395
          26.6255
          26.6138
          26.6036
          26.5947
          26.5868
          26.5802
          26.5753
          26.5735
        </DataArray>
      </PointData>
      <CellData>
      </CellData>
      <Points>
        <DataArray type="Float32" NumberOfComponents="3" format="ascii">
          0.039 0.00195 0.0
          0.0377 0.00195 0.0
          0.0364 0.00195 0.0
          0.0351 0.00195 0.0
          0.0338 0.00195 0.0
          0.0325 0.00195 0.0
          0.0312 0.00195 0.0
          0.0299 0.00195 0.0
          0.0286 0.00195 0.0
          0.0273 0.00195 0.0
          0.026 0.00195 0.0
          0.0247 0.00195 0.0
          0.0234 0.00195 0.0
          0.0221 0.00195 0.0
          0.0208 0.00195 0.0
          0.0195 0.00195 0.0
          0.0182 0.00195 0.0
          0.0169 0.00195 0.0
          0.0156 0.00195 0.0
          0.0143 0.00195 0.0
          0.013 0.00195 0.0
          0.0117 0.00195 0.0
          0.0104 0.00195 0.0
          0.0091 0.00195 0.0
          0.0078 0.00195 0.0
          0.0065 0.00195 0.0
          0.0052 0.00195 0.0
          0.0039 0.00195 0.0
          0.0026 0.00195 0.0
          0.0013 0.00195 0.0
          0 0.00195 0.0
          0.039 0.00065 0.0
          0.0377 0.00065 0.0
          0.0364 0.00065 0.0
          0.0351 0.00065 0.0
          0.0338 0.00065 0.0
          0.0325 0.00065 0.0
          0.0312 0.00065 0.0
          0.0299 0.00065 0.0
          0.0286 0.00065 0.0
          0.0273 0.00065 0.0
          0.026 0.00065 0.0
          0.0247 0.00065 0.0
          0.0234 0.00065 0.0
          0.0221 0.00065 0.0
          0.0208 0.00065 0.0
          0.0195 0.00065 0.0
          0.0182 0.00065 0.0
          0.0169 0.00065 0.0
          0.0156 0.00065 0.0
          0.0143 0.00065 0.0
          0.013 0.00065 0.0
          0.0117 0.00065 0.0
          0.0104 0.00065 0.0
          0.0091 0.00065 0.0
          0.0078 0.00065 0.0
          0.0065 0.00065 0.0
          0.0052 0.00065 0.0
          0.0039 0.00065 0.0
          0.0026 0.00065 0.0
          0.0013 0.00065 0.0
          0 0.00065 0.0
          0.039 -0.00065 0.0
          0.0377 -0.00065 0.0
          0.0364 -0.00065 0.0
          0.0351 -0.00065 0.0
          0.0338 -0.00065 0.0
          0.0325 -0.00065 0.0
          0.0312 -0.00065 0.0
          0.0299 -0.00065 0.0
          0.0286 -0.00065 0.0
          0.0273 -0.00065 0.0
          0.026 -0.00065 0.0
          0.0247 -0.00065 0.0
          0.0234 -0.00065 0.0
          0.0221 -0.00065 0.0
          0.0208 -0.00065 0.0
          0.0195 -0.00065 0.0
          0.0182 -0.00065 0.0
          0.0169 -0.00065 0.0
          0.0156 -0.00065 0.0
          0.0143 -0.00065 0.0
          0.013 -0.00065 0.0
          0.0117 -0.00065 0.0
          0.0104 -0.00065 0.0
          0.0091 -0.00065 0.0
          0.0078 -0.00065 0.0
          0.0065 -0.00065 0.0
          0.0052 -0.00065 0.0
          0.0039 -0.00065 0.0
          0.0026 -0.00065 0.0
          0.0013 -0.00065 0.0
          0 -0.00065 0.0
          0.039 -0.00195 0.0
          0.0377 -0.00195 0.0
          0.0364 -0.00195 0.0
          0.0351 -0.00195 0.0
          0.0338 -0.00195 0.0
          0.0325 -0.00195 0.0
          0.0312 -0.00195 0.0
          0.0299 -0.00195 0.0
          0.0286 -0.00195 0.0
          0.0273 -0.00195 0.0
          0.026 -0.00195 0.0
          0.0247 -0.00195 0.0
          0.0234 -0.00195 0.0
          0.0221 -0.00195 0.0
          0.0208 -0.00195 0.0
          0.0195 -0.00195 0.0
          0.0182 -0.00195 0.0
          0.0169 -0.00195 0.0
          0.0156 -0.00195 0.0
          0.0143 -0.00195 0.0
          0.013 -0.00195 0.0
          0.0117 -0.00195 0.0
          0.0104 -0.00195 0.0
          0.0091 -0.00195 0.0
          0.0078 -0.00195 0.0
          0.0065 -0.00195 0.0
          0.0052 -0.00195 0.0
          0.0039 -0.00195 0.0
          0.0026 -0.00195 0.0
          0.0013 -0.00195 0.0
          0 -0.00195 0.0
          0.039 -0.00325 0.0
          0.0377 -0.00325 0.0
          0.0364 -0.00325 0.0
          0.0351 -0.00325 0.0
          0.0338 -0.00325 0.0
          0.0325 -0.00325 0.0
          0.0312 -0.00325 0.0
          0.0299 -0.00325 0.0
          0.0286 -0.00325 0.0
          0.0273 -0.00325 0.0
          0.026 -0.00325 0.0
          0.0247 -0.00325 0.0
          0.0234 -0.00325 0.0
          0.0221 -0.00325 0.0
          0.0208 -0.00325 0.0
          0.0195 -0.00325 0.0
          0.0182 -0.00325 0.0
          0.0169 -0.00325 0.0
          0.0156 -0.00325 0.0
          0.0143 -0.00325 0.0
          0.013 -0.00325 0.0
          0.0117 -0.00325 0.0
          0.0104 -0.00325 0.0
          0.0091 -0.00325 0.0
          0.0078 -0.00325 0.0
          0.0065 -0.00325 0.0
          0.0052 -0.00325 0.0
          0.0039 -0.00325 0.0
          0.0026 -0.00325 0.0
          0.0013 -0.00325 0.0
          0 -0.00325 0.0
          0.039 -0.00455 0.0
          0.0377 -0.00455 0.0
          0.0364 -0.00455 0.0
          0.0351 -0.00455 0.0
          0.0338 -0.00455 0.0
          0.0325 -0.00455 0.0
          0.0312 -0.00455 0.0
          0.0299 -0.00455 0.0
          0.0286 -0.00455 0.0
          0.0273 -0.00455 0.0
          0.026 -0.00455 0.0
          0.0247 -0.00455 0.0
          0.0234 -0.00455 0.0
          0.0221 -0.00455 0.0
          0.0208 -0.00455 0.0
          0.0195 -0.00455 0.0
          0.0182 -0.00455 0.0
          0.0169 -0.00455 0.0
          0.0156 -0.00455 0.0
          0.0143 -0.00455 0.0
          0.013 -0.00455 0.0
          0.0117 -0.00455 0.0
          0.0104 -0.00455 0.0
          0.0091 -0.00455 0.0
          0.0078 -0.00455 0.0
          0.0065 -0.00455 0.0
          0.0052 -0.00455 0.0
          0.0039 -0.00455 0.0
          0.0026 -0.00455 0.0
          0.0013 -0.00455 0.0
          0 -0.00455 0.0
          0.039 -0.00585 0.0
          0.0377 -0.00585 0.0
          0.0364 -0.00585 0.0
          0.0351 -0.00585 0.0
          0.0338 -0.00585 0.0
          0.0325 -0.00585 0.0
          0.0312 -0.00585 0.0
          0.0299 -0.00585 0.0
          0.0286 -0.00585 0.0
          0.0273 -0.00585 0.0
          0.026 -0.00585 0.0
          0.0247 -0.00585 0.0
          0.0234 -0.00585 0.0
          0.0221 -0.00585 0.0
          0.0208 -0.00585 0.0
          0.0195 -0.00585 0.0
          0.0182 -0.00585 0.0
          0.0169 -0.00585 0.0
          0.0156 -0.00585 0.0
          0.0143 -0.00585 0.0
          0.013 -0.00585 0.0
          0.0117 -0.00585 0.0
          0.0104 -0.00585 0.0
          0.0091 -0.00585 0.0
          0.0078 -0.00585 0.0
          0.0065 -0.00585 0.0
          0.0052 -0.00585 0.0
          0.0039 -0.00585 0.0
          0.0026 -0.00585 0.0
          0.0013 -0.00585 0.0
          0 -0.00585 0.0
          0.039 -0.00715 0.0
          0.0377 -0.00715 0.0
          0.0364 -0.00715 0.0
          0.0351 -0.00715 0.0
          0.0338 -0.00715 0.0
          0.0325 -0.00715 0.0
          0.0312 -0.00715 0.0
          0.0299 -0.00715 0.0
          0.0286 -0.00715 0.0
          0.0273 -0.00715 0.0
          0.026 -0.00715 0.0
          0.0247 -0.00715 0.0
          0.0234 -0.00715 0.0
          0.0221 -0.00715 0.0
          0.0208 -0.00715 0.0
          0.0195 -0.00715 0.0
          0.0182 -0.00715 0.0
          0.0169 -0.00715 0.0
          0.0156 -0.00715 0.0
          0.0143 -0.00715 0.0
          0.013 -0.00715 0.0
          0.0117 -0.00715 0.0
          0.0104 -0.00715 0.0
          0.0091 -0.00715 0.0
          0.0078 -0.00715 0.0
          0.0065 -0.00715 0.0
          0.0052 -0.00715 0.0
          0.0039 -0.00715 0.0
          0.0026 -0.00715 0.0
          0.0013 -0.00715 0.0
          0 -0.00715 0.0
          0.039 -0.00845 0.0
          0.0377 -0.00845 0.0
          0.0364 -0.00845 0.0
          0.0351 -0.00845 0.0
          0.0338 -0.00845 0.0
          0.0325 -0.00845 0.0
          0.0312 -0.00845 0.0
          0.0299 -0.00845 0.0
          0.0286 -0.00845 0.0
          0.0273 -0.00845 0.0
          0.026 -0.00845 0.0
          0.0247 -0.00845 0.0
          0.0234 -0.00845 0.0
          0.0221 -0.00845 0.0
          0.0208 -0.00845 0.0
          0.0195 -0.00845 0.0
          0.0182 -0.00845 0.0
          0.0169 -0.00845 0.0
          0.0156 -0.00845 0.0
          0.0143 -0.00845 0.0
          0.013 -0.00845 0.0
          0.0117 -0.00845 0.0
          0.0104 -0.00845 0.0
          0.0091 -0.00845 0.0
          0.0078 -0.00845 0.0
          0.0065 -0.00845 0.0
          0.0052 -0.00845 0.0
          0.0039 -0.00845 0.0
          0.0026 -0.00845 0.0
          0.0013 -0.00845 0.0
          0 -0.00845 0.0
          0.039 -0.00975 0.0
          0.0377 -0.00975 0.0
          0.0364 -0.00975 0.0
          0.0351 -0.00975 0.0
          0.0338 -0.00975 0.0
          0.0325 -0.00975 0.0
          0.0312 -0.00975 0.0
          0.0299 -0.00975 0.0
          0.0286 -0.00975 0.0
          0.0273 -0.00975 0.0
          0.026 -0.00975 0.0
          0.0247 -0.00975 0.0
          0.0234 -0.00975 0.0
          0.0221 -0.00975 0.0
          0.0208 -0.00975 0.0
          0.0195 -0.00975 0.0
          0.0182 -0.00975 0.0
          0.0169 -0.00975 0.0
          0.0156 -0.00975 0.0
          0.0143 -0.00975 0.0
          0.013 -0.00975 0.0
          0.0117 -0.00975 0.0
          0.0104 -0.00975 0.0
          0.0091 -0.00975 0.0
          0.0078 -0.00975 0.0
          0.0065 -0.00975 0.0
          0.0052 -0.00975 0.0
          0.0039 -0.00975 0.0
          0.0026 -0.00975 0.0
          0.0013 -0.00975 0.0
          0 -0.00975 0.0
          0.039 -0.01105 0.0
          0.0377 -0.01105 0.0
          0.0364 -0.01105 0.0
          0.0351 -0.01105 0.0
          0.0338 -0.01105 0.0
          0.0325 -0.01105 0.0
          0.0312 -0.01105 0.0
          0.0299 -0.01105 0.0
          0.0286 -0.01105 0.0
          0.0273 -0.01105 0.0
          0.026 -0.01105 0.0
          0.0247 -0.01105 0.0
          0.0234 -0.01105 0.0
          0.0221 -0.01105 0.0
          0.0208 -0.01105 0.0
          0.0195 -0.01105 0.0
          0.0182 -0.01105 0.0
          0.0169 -0.01105 0.0
          0.0156 -0.01105 0.0
          0.0143 -0.01105 0.0
          0.013 -0.01105 0.0
          0.0117 -0.01105 0.0
          0.0104 -0.01105 0.0
          0.0091 -0.01105 0.0
          0.0078 -0.01105 0.0
          0.0065 -0.01105 0.0
          0.0052 -0.01105 0.0
          0.0039 -0.01105 0.0
          0.0026 -0.01105 0.0
          0.0013 -0.01105 0.0
          0 -0.01105 0.0
          0.039 -0.01235 0.0
          0.0377 -0.01235 0.0
          0.0364 -0.01235 0.0
          0.0351 -0.01235 0.0
          0.0338 -0.01235 0.0
          0.0325 -0.01235 0.0
          0.0312 -0.01235 0.0
          0.0299 -0.01235 0.0
          0.0286 -0.01235 0.0
          0.0273 -0.01235 0.0
          0.026 -0.01235 0.0
          0.0247 -0.01235 0.0
          0.0234 -0.01235 0.0
          0.0221 -0.01235 0.0
          0.0208 -0.01235 0.0
          0.0195 -0.01235 0.0
          0.0182 -0.01235 0.0
          0.0169 -0.01235 0.0
          0.0156 -0.01235 0.0
          0.0143 -0.01235 0.0
          0.013 -0.01235 0.0
          0.0117 -0.01235 0.0
          0.0104 -0.01235 0.0
          0.0091 -0.01235 0.0
          0.0078 -0.01235 0.0
          0.0065 -0.01235 0.0
          0.0052 -0.01235 0.0
          0.0039 -0.01235 0.0
          0.0026 -0.01235 0.0
          0.0013 -0.01235 0.0
          0 -0.01235 0.0
          0.039 -0.01365 0.0
          0.0377 -0.01365 0.0
          0.0364 -0.01365 0.0
          0.0351 -0.01365 0.0
          0.0338 -0.01365 0.0
          0.0325 -0.01365 0.0
          0.0312 -0.01365 0.0
          0.0299 -0.01365 0.0
          0.0286 -0.01365 0.0
          0.0273 -0.01365 0.0
          0.026 -0.01365 0.0
          0.0247 -0.01365 0.0
          0.0234 -0.01365 0.0
          0.0221 -0.01365 0.0
          0.0208 -0.01365 0.0
          0.0195 -0.01365 0.0
          0.0182 -0.01365 0.0
          0.0169 -0.01365 0.0
          0.0156 -0.01365 0.0
          0.0143 -0.01365 0.0
          0.013 -0.01365 0.0
          0.0117 -0.01365 0.0
          0.0104 -0.01365 0.0
          0.0091 -0.01365 0.0
          0.0078 -0.01365 0.0
          0.0065 -0.01365 0.0
          0.0052 -0.01365 0.0
          0.0039 -0.01365 0.0
          0.0026 -0.01365 0.0
          0.0013 -0.01365 0.0
          0 -0.01365 0.0
          0.039 -0.01495 0.0
          0.0377 -0.01495 0.0
          0.0364 -0.01495 0.0
          0.0351 -0.01495 0.0
          0.0338 -0.01495 0.0
          0.0325 -0.01495 0.0
          0.0312 -0.01495 0.0
          0.0299 -0.01495 0.0
          0.0286 -0.01495 0.0
          0.0273 -0.01495 0.0
          0.026 -0.01495 0.0
          0.0247 -0.01495 0.0
          0.0234 -0.01495 0.0
          0.0221 -0.01495 0.0
          0.0208 -0.01495 0.0