<?xml version="1.0"?>
<VTKFile type="UnstructuredGrid" version="0.1" byte_order="LittleEndian">
  <UnstructuredGrid>
    <Piece NumberOfPoints="961" NumberOfCells="900">
      <PointData Scalars="Temperature">
        <DataArray type="Float32" Name="Temperature" format="ascii">
          21.0005
          21.0085
          21.0168
          21.0259
          21.0364
          21.049
          21.0649
          21.0841
          21.1055
          21.1247
          21.1387
          21.1461
          21.1492
          21.15
          21.1503
          21.1504
          21.1503
          21.15
          21.1492
          21.1461
          21.1387
          21.1247
          21.1055
          21.0841
          21.0649
          21.049
          21.0364
          21.0259
          21.0168
          21.0085
          21.0005
          21.0083
          21.1374
          21.2725
          21.4206
          21.5903
          21.7936
          22.0471
          22.3701
          22.7306
          23.0664
          23.2929
          23.4084
          23.4459
          23.458
          23.4618
          23.4627
          23.4618
          23.458
          23.4459
          23.4084
          23.2929
          23.0664
          22.7306
          22.3701
          22.0471
          21.7936
          21.5903
          21.4206
          21.2725
          21.1374
          21.0083
          21.0158
          21.2605
          21.5163
          21.7952
          22.1126
          22.4904
          22.9602
          23.5671
          24.4047
          25.1259
          25.6128
          25.7257
          25.7619
          25.7736
          25.7773
          25.7781
          25.7773
          25.7736
          25.7619
          25.7257
          25.6128
          25.1259
          24.4047
          23.5671
          22.9602
          22.4904
          22.1126
          21.7952
          21.5163
          21.2605
          21.0158
          21.0226
          21.3732
          21.7383
          22.1336
          22.5788
          23.1014
          23.7424
          24.5739
          25.714
          28.0978
          28.0981
          28.0982
          28.0983
          28.0984
          28.0984
          28.0984
          28.0984
          28.0984
          28.0983
          28.0982
          28.0981
          28.0978
          25.714
          24.5739
          23.7424
          23.1014
          22.5788
          22.1336
          21.7383
          21.3732
          21.0226
          21.0287
          21.4723
          21.9321
          22.4253
          22.9729
          23.6028
          24.3558
          25.2944
          26.5608
          28.0987
          28.0988
          28.0989
          28.099
          28.099
          28.0991
          28.0991
          28.0991
          28.099
          28.099
          28.0989
          28.0988
          28.0987
          26.5608
          25.2944
          24.3558
          23.6028
          22.9729
          22.4253
          21.9321
          21.4723
          21.0287
          21.0338
          21.556
          22.0945
          22.6659
          23.2897
          23.9901
          24.7976
          25.7521
          26.8684
          28.1004
          28.1005
          28.1006
          28.1007
          28.1007
          28.1007
          28.1008
          28.1007
          28.1007
          28.1007
          28.1006
          28.1005
          28.1004
          26.8684
          25.7521
          24.7976
          23.9901
          23.2897
          22.6659
          22.0945
          21.556
          21.0338
          21.038
          21.6244
          22.2258
          22.8569
          23.5341
          24.2753
          25.0995
          26.0199
          27.0319
          28.1032
          28.1033
          28.1033
          28.1034
          28.1034
          28.1035
          28.1035
          28.1035
          28.1034
          28.1034
          28.1033
          28.1033
          28.1032
          27.0319
          26.0199
          25.0995
          24.2753
          23.5341
          22.8569
          22.2258
          21.6244
          21.038
          21.0413
          21.6786
          22.3287
          23.004
          23.7169
          24.4798
          25.3024
          26.1885
          27.1303
          28.107
          28.107
          28.1071
          28.1071
          28.1072
          28.1072
          28.1072
          28.1072
          28.1072
          28.1071
          28.1071
          28.107
          28.107
          27.1303
          26.1885
          25.3024
          24.4798
          23.7169
          23.004
          22.3287
          21.6786
          21.0413
          21.0439
          21.7206
          22.4078
          23.115
          23.8515
          24.6253
          25.4414
          26.3
          27.1946
          28.1117
          28.1118
          28.1119
          28.1119
          28.1119
          28.1119
          28.1119
          28.1119
          28.1119
          28.1119
          28.1119
          28.1118
          28.1117
          27.1946
          26.3
          25.4414
          24.6253
          23.8515
          23.115
          22.4078
          21.7206
          21.0439
          21.0459
          21.7528
          22.4677
          23.1981
          23.9503
          24.7297
          25.5388
          26.377
          27.2395
          28.1175
          28.1176
          28.1176
          28.1177
          28.1177
          28.1177
          28.1177
          28.1177
          28.1177
          28.1177
          28.1176
          28.1176
          28.1175
          27.2395
          26.377
          25.5388
          24.7297
          23.9503
          23.1981
          22.4677
          21.7528
          21.0459
          21.0474
          21.7773
          22.5132
          23.2605
          24.0236
          24.806
          25.6093
          26.4326
          27.2728
          28.1243
          28.1244
          28.1244
          28.1245
          28.1245
          28.1245
          28.1245
          28.1245
          28.1245
          28.1245
          28.1244
          28.1244
          28.1243
          27.2728
          26.4326
          25.6093
          24.806
          24.0236
          23.2605
          22.5132
          21.7773
          21.0474
          21.0486
          21.7964
          22.5484
          23.3084
          24.0794
          24.8637
          25.6623
          26.4748
          27.2992
          28.1321
          28.1322
          28.1322
          28.1323
          28.1323
          28.1323
          28.1323
          28.1323
          28.1323
          28.1323
          28.1322
          28.1322
          28.1321
          27.2992
          26.4748
          25.6623
          24.8637
          24.0794
          23.3084
          22.5484
          21.7964
          21.0486
          21.0495
          21.8118
          22.5767
          23.3467
          24.1238
          24.9096
          25.7047
          26.509
          27.3217
          28.141
          28.141
          28.1411
          28.1411
          28.1411
          28.1411
          28.1411
          28.1411
          28.1411
          28.1411
          28.1411
          28.141
          28.141
          27.3217
          26.509
          25.7047
          24.9096
          24.1238
          23.3467
          22.5767
          21.8118
          21.0495
          21.0504
          21.825
          22.601
          23.3796
          24.1619
          24.9489
          25.7411
          26.5389
          27.3423
          28.1508
          28.1509
          28.1509
          28.1509
          28.151
          28.151
          28.151
          28.151
          28.151
          28.1509
          28.1509
          28.1509
          28.1508
          27.3423
          26.5389
          25.7411
          24.9489
          24.1619
          23.3796
          22.601
          21.825
          21.0504
          21.0512
          21.8376
          22.624
          23.4106
          24.1977
          24.9858
          25.7755
          26.5676
          27.3627
          28.1617
          28.1617
          28.1617
          28.1618
          28.1618
          28.1618
          28.1618
          28.1618
          28.1618
          28.1618
          28.1617
          28.1617
          28.1617
          27.3627
          26.5676
          25.7755
          24.9858
          24.1977
          23.4106
          22.624
          21.8376
          21.0512
          21.052
          21.8507
          22.6481
          23.4431
          24.2351
          25.0243
          25.8114
          26.5975
          27.3842
          28.1735
          28.1736
          28.1736
          28.1736
          28.1737
          28.1737
          28.1737
          28.1737
          28.1737
          28.1736
          28.1736
          28.1736
          28.1735
          27.3842
          26.5975
          25.8114
          25.0243
          24.2351
          23.4431
          22.6481
          21.8507
          21.052
          21.0529
          21.8661
          22.6761
          23.4806
          24.2782
          25.0684
          25.8521
          26.6311
          27.4082
          28.1864
          28.1864
          28.1865
          28.1865
          28.1866
          28.1866
          28.1866
          28.1866
          28.1866
          28.1865
          28.1865
          28.1864
          28.1864
          27.4082
          26.6311
          25.8521
          25.0684
          24.2782
          23.4806
          22.6761
          21.8661
          21.0529
          21.0541
          21.8854
          22.7113
          23.5275
          24.3315
          25.1224
          25.9015
          26.6714
          27.4361
          28.2002
          28.2003
          28.2003
          28.2004
          28.2005
          28.2005
          28.2005
          28.2005
          28.2005
          28.2004
          28.2003
          28.2003
          28.2002
          27.4361
          26.6714
          25.9015
          25.1224
          24.3315
          23.5275
          22.7113
          21.8854
          21.0541
          21.0557
          21.9112
          22.758
          23.5893
          24.401
          25.1921
          25.9643
          26.7215
          27.4696
          28.2151
          28.2152
          28.2152
          28.2153
          28.2154
          28.2154
          28.2154
          28.2154
          28.2154
          28.2153
          28.2152
          28.2152
          28.2151
          27.4696
          26.7215
          25.9643
          25.1921
          24.401
          23.5893
          22.758
          21.9112
          21.0557
          21.058
          21.9471
          22.8224
          23.6737
          24.4949
          25.2848
          26.0464
          26.7857
          27.5108
          28.2309
          28.231
          28.2311
          28.2312
          28.2313
          28.2314
          28.2314
          28.2314
          28.2313
          28.2312
          28.2311
          28.231
          28.2309
          27.5108
          26.7857
          26.0464
          25.2848
          24.4949
          23.6737
          22.8224
          21.9471
          21.058
          21.061
          21.9985
          22.9138
          23.7919
          24.6242
          25.4102
          26.1553
          26.8688
          27.5622
          28.2477
          28.2478
          28.248
          28.2481
          28.2483
          28.2484
          28.2485
          28.2484
          28.2483
          28.2481
          28.248
          28.2478
          28.2477
          27.5622
          26.8688
          26.1553
          25.4102
          24.6242
          23.7919
          22.9138
          21.9985
          21.061
          21.0669
          22.0738
          23.0471
          23.9607
          24.8048
          25.5812
          26.3003
          26.9768
          27.6266
          28.2655
          28.2656
          28.2658
          28.2661
          28.2664
          28.2665
          28.2666
          28.2665
          28.2664
          28.2661
          28.2658
          28.2656
          28.2655
          27.6266
          26.9768
          26.3003
          25.5812
          24.8048
          23.9607
          23.0471
          22.0738
          21.0669
          21.0696
          22.1906
          23.2456
          24.2063
          25.0589
          25.8142
          26.4922
          27.1159
          27.7067
          28.2841
          28.2842
          28.2846
          28.285
          28.2855
          28.2858
          28.2859
          28.2858
          28.2855
          28.285
          28.2846
          28.2842
          28.2841
          27.7067
          27.1159
          26.4922
          25.8142
          25.0589
          24.2063
          23.2456
          22.1906
          21.0696
          21.1018
          22.368
          23.555
          24.5683
          25.4169
          26.1281
          26.7419
          27.292
          27.8051
          28.3034
          28.3036
          28.3042
          28.305
          28.3058
          28.3063
          28.3065
          28.3063
          28.3058
          28.305
          28.3042
          28.3036
          28.3034
          27.8051
          27.292
          26.7419
          26.1281
          25.4169
          24.5683
          23.555
          22.368
          21.1018
          21.0321
          22.7099
          24.0426
          25.1149
          25.9146
          26.5404
          27.0573
          27.5083
          27.9228
          28.3232
          28.3236
          28.3247
          28.326
          28.3273
          28.3282
          28.3285
          28.3282
          28.3273
          28.326
          28.3247
          28.3236
          28.3232
          27.9228
          27.5083
          27.0573
          26.5404
          25.9146
          25.1149
          24.0426
          22.7099
          21.0321
          21.4743
          23.1789
          24.9304
          25.922
          26.579
          27.0585
          27.4393
          27.764
          28.0589
          28.3433
          28.344
          28.3458
          28.3481
          28.3502
          28.3517
          28.3522
          28.3517
          28.3502
          28.3481
          28.3458
          28.344
          28.3433
          28.0589
          27.764
          27.4393
          27.0585
          26.579
          25.922
          24.9304
          23.1789
          21.4743
          19.7837
          25.0811
          26.3821
          27.0206
          27.4032
          27.6704
          27.8778
          28.0527
          28.2101
          28.3627
          28.364
          28.3675
          28.3715
          28.3749
          28.3771
          28.3779
          28.3771
          28.3749
          28.3715
          28.3675
          28.364
          28.3627
          28.2101
          28.0527
          27.8778
          27.6704
          27.4032
          27.0206
          26.3821
          25.0811
          19.7837
          28.2932
          28.3035
          28.3118
          28.3204
          28.3297
          28.3399
          28.3509
          28.3625
          28.3739
          28.3795
          28.3829
          28.3898
          28.3966
          28.4019
          28.4052
          28.4063
          28.4052
          28.4019
          28.3966
          28.3898
          28.3829
          28.3795
          28.3739
          28.3625
          28.3509
          28.3399
          28.3297
          28.3204
          28.3118
          28.3035
          28.2932
          28.2973
          28.3045
          28.3122
          28.3205
          28.3298
          28.34
          28.3511
          28.363
          28.3752
          28.3878
          28.401
          28.4137
          28.4245
          28.432
          28.4364
          28.4378
          28.4364
          28.432
          28.4245
          28.4137
          28.401
          28.3878
          28.3752
          28.363
          28.3511
          28.34
          28.3298
          28.3205
          28.3122
          28.3045
          28.2973
          28.3017
          28.3063
          28.3128
          28.3208
          28.3299
          28.3401
          28.3514
          28.3639
          28.3782
          28.3957
          28.4192
          28.442
          28.4568
          28.4662
          28.4715
          28.4731
          28.4715
          28.4662
          28.4568
          28.442
          28.4192
          28.3957
          28.3782
          28.3639
          28.3514
          28.3401
          28.3299
          28.3208
          28.3128
          28.3063
          28.3017
          28.305
          28.3071
          28.3131
          28.3209
          28.3299
          28.3402
          28.3515
          28.3644
          28.3795
          28.3989
          28.4288
          28.4577
          28.4743
          28.4845
          28.4901
          28.4918
          28.4901
          28.4845
          28.4743
          28.4577
          28.4288
          28.3989
          28.3795
          28.3644
          28.3515
          28.3402
          28.3299
          28.3209
          28.3131
          28.3071
          28.305
        </DataArray>
      </PointData>
      <CellData>
      </CellData>
      <Points>
        <DataArray type="Float32" NumberOfComponents="3" format="ascii">
          0.039 0.00195 0.0
          0.0377 0.00195 0.0
          0.0364 0.00195 0.0
          0.0351 0.00195 0.0
          0.0338 0.00195 0.0
          0.0325 0.00195 0.0
          0.0312 0.00195 0.0
          0.0299 0.00195 0.0
          0.0286 0.00195 0.0
          0.0273 0.00195 0.0
          0.026 0.00195 0.0
          0.0247 0.00195 0.0
          0.0234 0.00195 0.0
          0.0221 0.00195 0.0
          0.0208 0.00195 0.0
          0.0195 0.00195 0.0
          0.0182 0.00195 0.0
          0.0169 0.00195 0.0
          0.0156 0.00195 0.0
          0.0143 0.00195 0.0
          0.013 0.00195 0.0
          0.0117 0.00195 0.0
          0.0104 0.00195 0.0
          0.0091 0.00195 0.0
          0.0078 0.00195 0.0
          0.0065 0.00195 0.0
          0.0052 0.00195 0.0
          0.0039 0.00195 0.0
          0.0026 0.00195 0.0
          0.0013 0.00195 0.0
          0 0.00195 0.0
          0.039 0.00065 0.0
          0.0377 0.00065 0.0
          0.0364 0.00065 0.0
          0.0351 0.00065 0.0
          0.0338 0.00065 0.0
          0.0325 0.00065 0.0
          0.0312 0.00065 0.0
          0.0299 0.00065 0.0
          0.0286 0.00065 0.0
          0.0273 0.00065 0.0
          0.026 0.00065 0.0
          0.0247 0.00065 0.0
          0.0234 0.00065 0.0
          0.0221 0.00065 0.0
          0.0208 0.00065 0.0
          0.0195 0.00065 0.0
          0.0182 0.00065 0.0
          0.0169 0.00065 0.0
          0.0156 0.00065 0.0
          0.0143 0.00065 0.0
          0.013 0.00065 0.0
          0.0117 0.00065 0.0
          0.0104 0.00065 0.0
          0.0091 0.00065 0.0
          0.0078 0.00065 0.0
          0.0065 0.00065 0.0
          0.0052 0.00065 0.0
          0.0039 0.00065 0.0
          0.0026 0.00065 0.0
          0.0013 0.00065 0.0
          0 0.00065 0.0
          0.039 -0.00065 0.0
          0.0377 -0.00065 0.0
          0.0364 -0.00065 0.0
          0.0351 -0.00065 0.0
          0.0338 -0.00065 0.0
          0.0325 -0.00065 0.0
          0.0312 -0.00065 0.0
          0.0299 -0.00065 0.0
          0.0286 -0.00065 0.0
          0.0273 -0.00065 0.0
          0.026 -0.00065 0.0
          0.0247 -0.00065 0.0
          0.0234 -0.00065 0.0
          0.0221 -0.00065 0.0
          0.0208 -0.00065 0.0
          0.0195 -0.00065 0.0
          0.0182 -0.00065 0.0
          0.0169 -0.00065 0.0
          0.0156 -0.00065 0.0
          0.0143 -0.00065 0.0
          0.013 -0.00065 0.0
          0.0117 -0.00065 0.0
          0.0104 -0.00065 0.0
          0.0091 -0.00065 0.0
          0.0078 -0.00065 0.0
          0.0065 -0.00065 0.0
          0.0052 -0.00065 0.0
          0.0039 -0.00065 0.0
          0.0026 -0.00065 0.0
          0.0013 -0.00065 0.0
          0 -0.00065 0.0
          0.039 -0.00195 0.0
          0.0377 -0.00195 0.0
          0.0364 -0.00195 0.0
          0.0351 -0.00195 0.0
          0.0338 -0.00195 0.0
          0.0325 -0.00195 0.0
          0.0312 -0.00195 0.0
          0.0299 -0.00195 0.0
          0.0286 -0.00195 0.0
          0.0273 -0.00195 0.0
          0.026 -0.00195 0.0
          0.0247 -0.00195 0.0
          0.0234 -0.00195 0.0
          0.0221 -0.00195 0.0
          0.0208 -0.00195 0.0
          0.0195 -0.00195 0.0
          0.0182 -0.00195 0.0
          0.0169 -0.00195 0.0
          0.0156 -0.00195 0.0
          0.0143 -0.00195 0.0
          0.013 -0.00195 0.0
          0.0117 -0.00195 0.0
          0.0104 -0.00195 0.0
          0.0091 -0.00195 0.0
          0.0078 -0.00195 0.0
          0.0065 -0.00195 0.0
          0.0052 -0.00195 0.0
          0.0039 -0.00195 0.0
          0.0026 -0.00195 0.0
          0.0013 -0.00195 0.0
          0 -0.00195 0.0
          0.039 -0.00325 0.0
          0.0377 -0.00325 0.0
          0.0364 -0.00325 0.0
          0.0351 -0.00325 0.0
          0.0338 -0.00325 0.0
          0.0325 -0.00325 0.0
          0.0312 -0.00325 0.0
          0.0299 -0.00325 0.0
          0.0286 -0.00325 0.0
          0.0273 -0.00325 0.0
          0.026 -0.00325 0.0
          0.0247 -0.00325 0.0
          0.0234 -0.00325 0.0
          0.0221 -0.00325 0.0
          0.0208 -0.00325 0.0
          0.0195 -0.00325 0.0
          0.0182 -0.00325 0.0
          0.0169 -0.00325 0.0
          0.0156 -0.00325 0.0
          0.0143 -0.00325 0.0
          0.013 -0.00325 0.0
          0.0117 -0.00325 0.0
          0.0104 -0.00325 0.0
          0.0091 -0.00325 0.0
          0.0078 -0.00325 0.0
          0.0065 -0.00325 0.0
          0.0052 -0.00325 0.0
          0.0039 -0.00325 0.0
          0.0026 -0.00325 0.0
          0.0013 -0.00325 0.0
          0 -0.00325 0.0
          0.039 -0.00455 0.0
          0.0377 -0.00455 0.0
          0.0364 -0.00455 0.0
          0.0351 -0.00455 0.0
          0.0338 -0.00455 0.0
          0.0325 -0.00455 0.0
          0.0312 -0.00455 0.0
          0.0299 -0.00455 0.0
          0.0286 -0.00455 0.0
          0.0273 -0.00455 0.0
          0.026 -0.00455 0.0
          0.0247 -0.00455 0.0
          0.0234 -0.00455 0.0
          0.0221 -0.00455 0.0
          0.0208 -0.00455 0.0
          0.0195 -0.00455 0.0
          0.0182 -0.00455 0.0
          0.0169 -0.00455 0.0
          0.0156 -0.00455 0.0
          0.0143 -0.00455 0.0
          0.013 -0.00455 0.0
          0.0117 -0.00455 0.0
          0.0104 -0.00455 0.0
          0.0091 -0.00455 0.0
          0.0078 -0.00455 0.0
          0.0065 -0.00455 0.0
          0.0052 -0.00455 0.0
          0.0039 -0.00455 0.0
          0.0026 -0.00455 0.0
          0.0013 -0.00455 0.0
          0 -0.00455 0.0
          0.039 -0.00585 0.0
          0.0377 -0.00585 0.0
          0.0364 -0.00585 0.0
          0.0351 -0.00585 0.0
          0.0338 -0.00585 0.0
          0.0325 -0.00585 0.0
          0.0312 -0.00585 0.0
          0.0299 -0.00585 0.0
          0.0286 -0.00585 0.0
          0.0273 -0.00585 0.0
          0.026 -0.00585 0.0
          0.0247 -0.00585 0.0
          0.0234 -0.00585 0.0
          0.0221 -0.00585 0.0
          0.0208 -0.00585 0.0
          0.0195 -0.00585 0.0
          0.0182 -0.00585 0.0
          0.0169 -0.00585 0.0
          0.0156 -0.00585 0.0
          0.0143 -0.00585 0.0
          0.013 -0.00585 0.0
          0.0117 -0.00585 0.0
          0.0104 -0.00585 0.0
          0.0091 -0.00585 0.0
          0.0078 -0.00585 0.0
          0.0065 -0.00585 0.0
          0.0052 -0.00585 0.0
          0.0039 -0.00585 0.0
          0.0026 -0.00585 0.0
          0.0013 -0.00585 0.0
          0 -0.00585 0.0
          0.039 -0.00715 0.0
          0.0377 -0.00715 0.0
          0.0364 -0.00715 0.0
          0.0351 -0.00715 0.0
          0.0338 -0.00715 0.0
          0.0325 -0.00715 0.0
          0.0312 -0.00715 0.0
          0.0299 -0.00715 0.0
          0.0286 -0.00715 0.0
          0.0273 -0.00715 0.0
          0.026 -0.00715 0.0
          0.0247 -0.00715 0.0
          0.0234 -0.00715 0.0
          0.0221 -0.00715 0.0
          0.0208 -0.00715 0.0
          0.0195 -0.00715 0.0
          0.0182 -0.00715 0.0
          0.0169 -0.00715 0.0
          0.0156 -0.00715 0.0
          0.0143 -0.00715 0.0
          0.013 -0.00715 0.0
          0.0117 -0.00715 0.0
          0.0104 -0.00715 0.0
          0.0091 -0.00715 0.0
          0.0078 -0.00715 0.0
          0.0065 -0.00715 0.0
          0.0052 -0.00715 0.0
          0.0039 -0.00715 0.0
          0.0026 -0.00715 0.0
          0.0013 -0.00715 0.0
          0 -0.00715 0.0
          0.039 -0.00845 0.0
          0.0377 -0.00845 0.0
          0.0364 -0.00845 0.0
          0.0351 -0.00845 0.0
          0.0338 -0.00845 0.0
          0.0325 -0.00845 0.0
          0.0312 -0.00845 0.0
          0.0299 -0.00845 0.0
          0.0286 -0.00845 0.0
          0.0273 -0.00845 0.0
          0.026 -0.00845 0.0
          0.0247 -0.00845 0.0
          0.0234 -0.00845 0.0
          0.0221 -0.00845 0.0
          0.0208 -0.00845 0.0
          0.0195 -0.00845 0.0
          0.0182 -0.00845 0.0
          0.0169 -0.00845 0.0
          0.0156 -0.00845 0.0
          0.0143 -0.00845 0.0
          0.013 -0.00845 0.0
          0.0117 -0.00845 0.0
          0.0104 -0.00845 0.0
          0.0091 -0.00845 0.0
          0.0078 -0.00845 0.0
          0.0065 -0.00845 0.0
          0.0052 -0.00845 0.0
          0.0039 -0.00845 0.0
          0.0026 -0.00845 0.0
          0.0013 -0.00845 0.0
          0 -0.00845 0.0
          0.039 -0.00975 0.0
          0.0377 -0.00975 0.0
          0.0364 -0.00975 0.0
          0.0351 -0.00975 0.0
          0.0338 -0.00975 0.0
          0.0325 -0.00975 0.0
          0.0312 -0.00975 0.0
          0.0299 -0.00975 0.0
          0.0286 -0.00975 0.0
          0.0273 -0.00975 0.0
          0.026 -0.00975 0.0
          0.0247 -0.00975 0.0
          0.0234 -0.00975 0.0
          0.0221 -0.00975 0.0
          0.0208 -0.00975 0.0
          0.0195 -0.00975 0.0
          0.0182 -0.00975 0.0
          0.0169 -0.00975 0.0
          0.0156 -0.00975 0.0
          0.0143 -0.00975 0.0
          0.013 -0.00975 0.0
          0.0117 -0.00975 0.0
          0.0104 -0.00975 0.0
          0.0091 -0.00975 0.0
          0.0078 -0.00975 0.0
          0.0065 -0.00975 0.0
          0.0052 -0.00975 0.0
          0.0039 -0.00975 0.0
          0.0026 -0.00975 0.0
          0.0013 -0.00975 0.0
          0 -0.00975 0.0
          0.039 -0.01105 0.0
          0.0377 -0.01105 0.0
          0.0364 -0.01105 0.0
          0.0351 -0.01105 0.0
          0.0338 -0.01105 0.0
          0.0325 -0.01105 0.0
          0.0312 -0.01105 0.0
          0.0299 -0.01105 0.0
          0.0286 -0.01105 0.0
          0.0273 -0.01105 0.0
          0.026 -0.01105 0.0
          0.0247 -0.01105 0.0
          0.0234 -0.01105 0.0
          0.0221 -0.01105 0.0
          0.0208 -0.01105 0.0
          0.0195 -0.01105 0.0
          0.0182 -0.01105 0.0
          0.0169 -0.01105 0.0
          0.0156 -0.01105 0.0
          0.0143 -0.01105 0.0
          0.013 -0.01105 0.0
          0.0117 -0.01105 0.0
          0.0104 -0.01105 0.0
          0.0091 -0.01105 0.0
          0.0078 -0.01105 0.0
          0.0065 -0.01105 0.0
          0.0052 -0.01105 0.0
          0.0039 -0.01105 0.0
          0.0026 -0.01105 0.0
          0.0013 -0.01105 0.0
          0 -0.01105 0.0
          0.039 -0.01235 0.0
          0.0377 -0.01235 0.0
          0.0364 -0.01235 0.0
          0.0351 -0.01235 0.0
          0.0338 -0.01235 0.0
          0.0325 -0.01235 0.0
          0.0312 -0.01235 0.0
          0.0299 -0.01235 0.0
          0.0286 -0.01235 0.0
          0.0273 -0.01235 0.0
          0.026 -0.01235 0.0
          0.0247 -0.01235 0.0
          0.0234 -0.01235 0.0
          0.0221 -0.01235 0.0
          0.0208 -0.01235 0.0
          0.0195 -0.01235 0.0
          0.0182 -0.01235 0.0
          0.0169 -0.01235 0.0
          0.0156 -0.01235 0.0
          0.0143 -0.01235 0.0
          0.013 -0.01235 0.0
          0.0117 -0.01235 0.0
          0.0104 -0.01235 0.0
          0.0091 -0.01235 0.0
          0.0078 -0.01235 0.0
          0.0065 -0.01235 0.0
          0.0052 -0.01235 0.0
          0.0039 -0.01235 0.0
          0.0026 -0.01235 0.0
          0.0013 -0.01235 0.0
          0 -0.01235 0.0
          0.039 -0.01365 0.0
          0.0377 -0.01365 0.0
          0.0364 -0.01365 0.0
          0.0351 -0.01365 0.0
          0.0338 -0.01365 0.0
          0.0325 -0.01365 0.0
          0.0312 -0.01365 0.0
          0.0299 -0.01365 0.0
          0.0286 -0.01365 0.0
          0.0273 -0.01365 0.0
          0.026 -0.01365 0.0
          0.0247 -0.01365 0.0
          0.0234 -0.01365 0.0
          0.0221 -0.01365 0.0
          0.0208 -0.01365 0.0
          0.0195 -0.01365 0.0
          0.0182 -0.01365 0.0
          0.0169 -0.01365 0.0
          0.0156 -0.01365 0.0
          0.0143 -0.01365 0.0
          0.013 -0.01365 0.0
          0.0117 -0.01365 0.0
          0.0104 -0.01365 0.0
          0.0091 -0.01365 0.0
          0.0078 -0.01365 0.0
          0.0065 -0.01365 0.0
          0.0052 -0.01365 0.0
          0.0039 -0.01365 0.0
          0.0026 -0.01365 0.0
          0.0013 -0.01365 0.0
          0 -0.01365 0.0
          0.039 -0.01495 0.0
          0.0377 -0.01495 0.0
          0.0364 -0.01495 0.0
          0.0351 -0.01495 0.0
          0.0338 -0.01495 0.0
          0.0325 -0.01495 0.0
          0.0312 -0.01495 0.0
          0.0299 -0.01495 0.0
          0.0286 -0.01495 0.0
          0.0273 -0.01495 0.0
          0.026 -0.01495 0.0
          0.0247 -0.01495 0.0
          0.0234 -0.01495 0.0
          0.0221 -0.01495 0.0