<?xml version="1.0"?>
<VTKFile type="UnstructuredGrid" version="0.1" byte_order="LittleEndian">
  <UnstructuredGrid>
    <Piece NumberOfPoints="961" NumberOfCells="900">
      <PointData Scalars="Temperature">
        <DataArray type="Float32" Name="Temperature" format="ascii">
          21.0009
          21.0152
          21.0302
          21.0467
          21.0656
          21.0882
          21.1166
          21.1512
          21.1895
          21.224
          21.2491
          21.2624
          21.2678
          21.2693
          21.2699
          21.27
          21.2699
          21.2693
          21.2678
          21.2624
          21.2491
          21.224
          21.1895
          21.1512
          21.1166
          21.0882
          21.0656
          21.0467
          21.0302
          21.0152
          21.0009
          21.015
          21.2474
          21.4909
          21.7573
          22.0624
          22.4278
          22.8828
          23.4623
          24.1088
          24.7109
          25.1171
          25.3243
          25.3914
          25.4132
          25.42
          25.4215
          25.42
          25.4132
          25.3914
          25.3243
          25.1171
          24.7109
          24.1088
          23.4623
          22.8828
          22.4278
          22.0624
          21.7573
          21.4909
          21.2474
          21.015
          21.0284
          21.4692
          21.9298
          22.4316
          23.0025
          23.6811
          24.5245
          25.6132
          27.115
          28.4078
          29.2806
          29.4829
          29.5479
          29.5689
          29.5755
          29.577
          29.5755
          29.5689
          29.5479
          29.4829
          29.2806
          28.4078
          27.115
          25.6132
          24.5245
          23.6811
          23.0025
          22.4316
          21.9298
          21.4692
          21.0284
          21.0408
          21.6722
          22.3296
          23.0409
          23.8414
          24.7801
          25.9308
          27.4219
          29.4654
          33.7368
          33.7373
          33.7375
          33.7377
          33.7378
          33.7379
          33.7379
          33.7379
          33.7378
          33.7377
          33.7375
          33.7373
          33.7368
          29.4654
          27.4219
          25.9308
          24.7801
          23.8414
          23.0409
          22.3296
          21.6722
          21.0408
          21.0516
          21.8506
          22.6785
          23.5659
          24.5503
          25.6819
          27.0333
          28.716
          30.985
          33.7379
          33.7381
          33.7383
          33.7385
          33.7386
          33.7386
          33.7386
          33.7386
          33.7386
          33.7385
          33.7383
          33.7381
          33.7379
          30.985
          28.716
          27.0333
          25.6819
          24.5503
          23.5659
          22.6785
          21.8506
          21.0516
          21.0608
          22.0013
          22.9707
          23.9987
          25.1201
          26.378
          27.8269
          29.5378
          31.5366
          33.7398
          33.7399
          33.7401
          33.7402
          33.7403
          33.7403
          33.7403
          33.7403
          33.7403
          33.7402
          33.7401
          33.7399
          33.7398
          31.5366
          29.5378
          27.8269
          26.378
          25.1201
          23.9987
          22.9707
          22.0013
          21.0608
          21.0684
          22.1242
          23.2067
          24.342
          25.5592
          26.8902
          28.3686
          30.0176
          31.8286
          33.7425
          33.7427
          33.7428
          33.7429
          33.743
          33.743
          33.743
          33.743
          33.743
          33.7429
          33.7428
          33.7427
          33.7425
          31.8286
          30.0176
          28.3686
          26.8902
          25.5592
          24.342
          23.2067
          22.1242
          21.0684
          21.0743
          22.2216
          23.3915
          24.606
          25.8872
          27.2567
          28.7319
          30.3187
          32.0028
          33.7462
          33.7463
          33.7464
          33.7465
          33.7466
          33.7466
          33.7466
          33.7466
          33.7466
          33.7465
          33.7464
          33.7463
          33.7462
          32.0028
          30.3187
          28.7319
          27.2567
          25.8872
          24.606
          23.3915
          22.2216
          21.0743
          21.079
          22.2969
          23.5331
          24.8047
          26.128
          27.5166
          28.9795
          30.5164
          32.1151
          33.7509
          33.751
          33.751
          33.7511
          33.7512
          33.7512
          33.7512
          33.7512
          33.7512
          33.7511
          33.751
          33.751
          33.7509
          32.1151
          30.5164
          28.9795
          27.5166
          26.128
          24.8047
          23.5331
          22.2969
          21.079
          21.0825
          22.3542
          23.6401
          24.9528
          26.3039
          27.7021
          29.1518
          30.6514
          32.1917
          33.7564
          33.7565
          33.7566
          33.7567
          33.7567
          33.7567
          33.7567
          33.7567
          33.7567
          33.7567
          33.7566
          33.7565
          33.7564
          32.1917
          30.6514
          29.1518
          27.7021
          26.3039
          24.9528
          23.6401
          22.3542
          21.0825
          21.0853
          22.3978
          23.7208
          25.0634
          26.4334
          27.8365
          29.275
          30.7471
          32.2466
          33.7629
          33.763
          33.7631
          33.7631
          33.7632
          33.7632
          33.7632
          33.7632
          33.7632
          33.7631
          33.7631
          33.763
          33.7629
          32.2466
          30.7471
          29.275
          27.8365
          26.4334
          25.0634
          23.7208
          22.3978
          21.0853
          21.0873
          22.4314
          23.7827
          25.1475
          26.5309
          27.9367
          29.3662
          30.818
          32.2882
          33.7703
          33.7704
          33.7705
          33.7706
          33.7706
          33.7706
          33.7706
          33.7706
          33.7706
          33.7706
          33.7705
          33.7704
          33.7703
          32.2882
          30.818
          29.3662
          27.9367
          26.5309
          25.1475
          23.7827
          22.4314
          21.0873
          21.089
          22.4583
          23.832
          25.214
          26.6076
          28.0151
          29.4374
          30.8737
          32.322
          33.7787
          33.7788
          33.7789
          33.7789
          33.779
          33.779
          33.779
          33.779
          33.779
          33.7789
          33.7789
          33.7788
          33.7787
          32.322
          30.8737
          29.4374
          28.0151
          26.6076
          25.214
          23.832
          22.4582
          21.089
          21.0904
          22.4811
          23.8738
          25.2703
          26.6723
          28.0811
          29.4973
          30.921
          32.3516
          33.788
          33.7881
          33.7882
          33.7882
          33.7883
          33.7883
          33.7883
          33.7883
          33.7883
          33.7882
          33.7882
          33.7881
          33.788
          32.3516
          30.921
          29.4973
          28.0811
          26.6723
          25.2703
          23.8738
          22.4811
          21.0904
          21.0918
          22.5025
          23.9128
          25.3228
          26.7324
          28.1422
          29.5528
          30.9651
          32.38
          33.7983
          33.7983
          33.7984
          33.7985
          33.7985
          33.7986
          33.7986
          33.7986
          33.7985
          33.7985
          33.7984
          33.7983
          33.7983
          32.38
          30.9651
          29.5528
          28.1422
          26.7324
          25.3228
          23.9128
          22.5025
          21.0918
          21.0932
          22.5248
          23.9536
          25.3774
          26.7947
          28.2054
          29.6101
          31.0107
          32.4095
          33.8094
          33.8095
          33.8096
          33.8097
          33.8097
          33.8098
          33.8098
          33.8098
          33.8097
          33.8097
          33.8096
          33.8095
          33.8094
          32.4095
          31.0107
          29.6101
          28.2054
          26.7947
          25.3774
          23.9536
          22.5248
          21.0932
          21.0948
          22.5509
          24.001
          25.4405
          26.8664
          28.2777
          29.6753
          31.0622
          32.4426
          33.8216
          33.8217
          33.8217
          33.8218
          33.8219
          33.8219
          33.8219
          33.8219
          33.8219
          33.8218
          33.8217
          33.8217
          33.8216
          32.4426
          31.0622
          29.6753
          28.2777
          26.8664
          25.4405
          24.001
          22.5509
          21.0948
          21.0969
          22.5838
          24.0607
          25.5197
          26.9558
          28.3671
          29.7553
          31.1247
          32.4818
          33.8346
          33.8347
          33.8348
          33.8349
          33.8349
          33.835
          33.835
          33.835
          33.8349
          33.8349
          33.8348
          33.8347
          33.8346
          32.4818
          31.1247
          29.7553
          28.3671
          26.9558
          25.5197
          24.0607
          22.5838
          21.0969
          21.0996
          22.6281
          24.1406
          25.6249
          27.0734
          28.4836
          29.8582
          31.2039
          32.5302
          33.8486
          33.8487
          33.8488
          33.8489
          33.849
          33.849
          33.8491
          33.849
          33.849
          33.8489
          33.8488
          33.8487
          33.8486
          32.5302
          31.2039
          29.8582
          28.4836
          27.0734
          25.6249
          24.1406
          22.6281
          21.0996
          21.1036
          22.6899
          24.2515
          25.7697
          27.2335
          28.6402
          29.9946
          31.3071
          32.5914
          33.8634
          33.8635
          33.8637
          33.8638
          33.864
          33.8641
          33.8641
          33.8641
          33.864
          33.8638
          33.8637
          33.8635
          33.8634
          32.5914
          31.3071
          29.9946
          28.6402
          27.2335
          25.7697
          24.2515
          22.6899
          21.1036
          21.1088
          22.7791
          24.4099
          25.9739
          27.4558
          28.854
          30.1777
          31.443
          32.6698
          33.8792
          33.8793
          33.8795
          33.8797
          33.8799
          33.8801
          33.8801
          33.8801
          33.8799
          33.8797
          33.8795
          33.8793
          33.8792
          32.6698
          31.443
          30.1777
          28.854
          27.4558
          25.9739
          24.4099
          22.7791
          21.1088
          21.1189
          22.9104
          24.6418
          26.267
          27.768
          29.1476
          30.4238
          31.6222
          32.7703
          33.8958
          33.8959
          33.8962
          33.8965
          33.8969
          33.8971
          33.8972
          33.8971
          33.8969
          33.8965
          33.8962
          33.8959
          33.8958
          32.7703
          31.6222
          30.4238
          29.1476
          27.768
          26.267
          24.6418
          22.9104
          21.1189
          21.1237
          23.1147
          24.9886
          26.695
          28.2093
          29.5498
          30.7519
          31.8555
          32.8979
          33.9131
          33.9133
          33.9137
          33.9143
          33.9149
          33.9152
          33.9154
          33.9152
          33.9149
          33.9143
          33.9137
          33.9133
          33.9131
          32.8979
          31.8555
          30.7519
          29.5498
          28.2093
          26.695
          24.9886
          23.1147
          21.1237
          21.1803
          23.4257
          25.5307
          27.328
          28.8333
          30.0941
          31.181
          32.153
          33.0569
          33.9311
          33.9314
          33.9321
          33.933
          33.9339
          33.9346
          33.9348
          33.9346
          33.9339
          33.933
          33.9321
          33.9314
          33.9311
          33.0569
          32.153
          31.181
          30.0941
          28.8333
          27.328
          25.5307
          23.4257
          21.1803
          21.0573
          24.0268
          26.3866
          28.2859
          29.7026
          30.8107
          31.7248
          32.5204
          33.249
          33.9494
          33.9499
          33.9511
          33.9527
          33.9542
          33.9553
          33.9556
          33.9553
          33.9542
          33.9527
          33.9511
          33.9499
          33.9494
          33.249
          32.5204
          31.7248
          30.8107
          29.7026
          28.2859
          26.3866
          24.0268
          21.0573
          21.8372
          24.8517
          27.948
          29.7023
          30.8646
          31.7123
          32.3843
          32.9556
          33.4724
          33.9676
          33.9685
          33.9707
          33.9734
          33.9759
          33.9776
          33.9782
          33.9776
          33.9759
          33.9734
          33.9707
          33.9685
          33.9676
          33.4724
          32.9556
          32.3843
          31.7123
          30.8646
          29.7023
          27.948
          24.8517
          21.8372
          18.8543
          28.205
          30.5031
          31.6312
          32.3065
          32.777
          33.1409
          33.4464
          33.7207
          33.9847
          33.9864
          33.9907
          33.9955
          33.9995
          34.002
          34.0029
          34.002
          33.9995
          33.9955
          33.9907
          33.9864
          33.9847
          33.7207
          33.4464
          33.1409
          32.777
          32.3065
          31.6312
          30.5031
          28.205
          18.8543
          33.8683
          33.886
          33.8994
          33.9124
          33.9259
          33.9401
          33.9551
          33.9707
          33.9861
          33.9972
          34.0031
          34.0116
          34.0194
          34.0254
          34.0291
          34.0304
          34.0291
          34.0254
          34.0194
          34.0116
          34.0031
          33.9972
          33.9861
          33.9707
          33.9551
          33.9401
          33.9259
          33.9124
          33.8994
          33.886
          33.8683
          33.8753
          33.8877
          33.9001
          33.9127
          33.926
          33.9402
          33.9553
          33.9712
          33.9873
          34.0035
          34.0195
          34.0342
          34.0464
          34.0548
          34.0596
          34.0612
          34.0596
          34.0548
          34.0464
          34.0342
          34.0195
          34.0035
          33.9873
          33.9712
          33.9553
          33.9402
          33.926
          33.9127
          33.9001
          33.8877
          33.8753
          33.8832
          33.891
          33.9011
          33.9131
          33.9262
          33.9404
          33.9556
          33.9719
          33.9898
          34.0106
          34.0369
          34.0617
          34.0781
          34.0885
          34.0943
          34.0961
          34.0943
          34.0885
          34.0781
          34.0617
          34.0369
          34.0106
          33.9898
          33.9719
          33.9556
          33.9404
          33.9262
          33.9131
          33.9011
          33.891
          33.8832
          33.889
          33.8923
          33.9016
          33.9132
          33.9263
          33.9405
          33.9557
          33.9723
          33.991
          34.0137
          34.0462
          34.0772
          34.0954
          34.1066
          34.1127
          34.1147
          34.1127
          34.1066
          34.0954
          34.0772
          34.0462
          34.0137
          33.991
          33.9723
          33.9557
          33.9405
          33.9263
          33.9132
          33.9016
          33.8923
          33.889
        </DataArray>
      </PointData>
      <CellData>
      </CellData>
      <Points>
        <DataArray type="Float32" NumberOfComponents="3" format="ascii">
          0.039 0.00195 0.0
          0.0377 0.00195 0.0
          0.0364 0.00195 0.0
          0.0351 0.00195 0.0
          0.0338 0.00195 0.0
          0.0325 0.00195 0.0
          0.0312 0.00195 0.0
          0.0299 0.00195 0.0
          0.0286 0.00195 0.0
          0.0273 0.00195 0.0
          0.026 0.00195 0.0
          0.0247 0.00195 0.0
          0.0234 0.00195 0.0
          0.0221 0.00195 0.0
          0.0208 0.00195 0.0
          0.0195 0.00195 0.0
          0.0182 0.00195 0.0
          0.0169 0.00195 0.0
          0.0156 0.00195 0.0
          0.0143 0.00195 0.0
          0.013 0.00195 0.0
          0.0117 0.00195 0.0
          0.0104 0.00195 0.0
          0.0091 0.00195 0.0
          0.0078 0.00195 0.0
          0.0065 0.00195 0.0
          0.0052 0.00195 0.0
          0.0039 0.00195 0.0
          0.0026 0.00195 0.0
          0.0013 0.00195 0.0
          0 0.00195 0.0
          0.039 0.00065 0.0
          0.0377 0.00065 0.0
          0.0364 0.00065 0.0
          0.0351 0.00065 0.0
          0.0338 0.00065 0.0
          0.0325 0.00065 0.0
          0.0312 0.00065 0.0
          0.0299 0.00065 0.0
          0.0286 0.00065 0.0
          0.0273 0.00065 0.0
          0.026 0.00065 0.0
          0.0247 0.00065 0.0
          0.0234 0.00065 0.0
          0.0221 0.00065 0.0
          0.0208 0.00065 0.0
          0.0195 0.00065 0.0
          0.0182 0.00065 0.0
          0.0169 0.00065 0.0
          0.0156 0.00065 0.0
          0.0143 0.00065 0.0
          0.013 0.00065 0.0
          0.0117 0.00065 0.0
          0.0104 0.00065 0.0
          0.0091 0.00065 0.0
          0.0078 0.00065 0.0
          0.0065 0.00065 0.0
          0.0052 0.00065 0.0
          0.0039 0.00065 0.0
          0.0026 0.00065 0.0
          0.0013 0.00065 0.0
          0 0.00065 0.0
          0.039 -0.00065 0.0
          0.0377 -0.00065 0.0
          0.0364 -0.00065 0.0
          0.0351 -0.00065 0.0
          0.0338 -0.00065 0.0
          0.0325 -0.00065 0.0
          0.0312 -0.00065 0.0
          0.0299 -0.00065 0.0
          0.0286 -0.00065 0.0
          0.0273 -0.00065 0.0
          0.026 -0.00065 0.0
          0.0247 -0.00065 0.0
          0.0234 -0.00065 0.0
          0.0221 -0.00065 0.0
          0.0208 -0.00065 0.0
          0.0195 -0.00065 0.0
          0.0182 -0.00065 0.0
          0.0169 -0.00065 0.0
          0.0156 -0.00065 0.0
          0.0143 -0.00065 0.0
          0.013 -0.00065 0.0
          0.0117 -0.00065 0.0
          0.0104 -0.00065 0.0
          0.0091 -0.00065 0.0
          0.0078 -0.00065 0.0
          0.0065 -0.00065 0.0
          0.0052 -0.00065 0.0
          0.0039 -0.00065 0.0
          0.0026 -0.00065 0.0
          0.0013 -0.00065 0.0
          0 -0.00065 0.0
          0.039 -0.00195 0.0
          0.0377 -0.00195 0.0
          0.0364 -0.00195 0.0
          0.0351 -0.00195 0.0
          0.0338 -0.00195 0.0
          0.0325 -0.00195 0.0
          0.0312 -0.00195 0.0
          0.0299 -0.00195 0.0
          0.0286 -0.00195 0.0
          0.0273 -0.00195 0.0
          0.026 -0.00195 0.0
          0.0247 -0.00195 0.0
          0.0234 -0.00195 0.0
          0.0221 -0.00195 0.0
          0.0208 -0.00195 0.0
          0.0195 -0.00195 0.0
          0.0182 -0.00195 0.0
          0.0169 -0.00195 0.0
          0.0156 -0.00195 0.0
          0.0143 -0.00195 0.0
          0.013 -0.00195 0.0
          0.0117 -0.00195 0.0
          0.0104 -0.00195 0.0
          0.0091 -0.00195 0.0
          0.0078 -0.00195 0.0
          0.0065 -0.00195 0.0
          0.0052 -0.00195 0.0
          0.0039 -0.00195 0.0
          0.0026 -0.00195 0.0
          0.0013 -0.00195 0.0
          0 -0.00195 0.0
          0.039 -0.00325 0.0
          0.0377 -0.00325 0.0
          0.0364 -0.00325 0.0
          0.0351 -0.00325 0.0
          0.0338 -0.00325 0.0
          0.0325 -0.00325 0.0
          0.0312 -0.00325 0.0
          0.0299 -0.00325 0.0
          0.0286 -0.00325 0.0
          0.0273 -0.00325 0.0
          0.026 -0.00325 0.0
          0.0247 -0.00325 0.0
          0.0234 -0.00325 0.0
          0.0221 -0.00325 0.0
          0.0208 -0.00325 0.0
          0.0195 -0.00325 0.0
          0.0182 -0.00325 0.0
          0.0169 -0.00325 0.0
          0.0156 -0.00325 0.0
          0.0143 -0.00325 0.0
          0.013 -0.00325 0.0
          0.0117 -0.00325 0.0
          0.0104 -0.00325 0.0
          0.0091 -0.00325 0.0
          0.0078 -0.00325 0.0
          0.0065 -0.00325 0.0
          0.0052 -0.00325 0.0
          0.0039 -0.00325 0.0
          0.0026 -0.00325 0.0
          0.0013 -0.00325 0.0
          0 -0.00325 0.0
          0.039 -0.00455 0.0
          0.0377 -0.00455 0.0
          0.0364 -0.00455 0.0
          0.0351 -0.00455 0.0
          0.0338 -0.00455 0.0
          0.0325 -0.00455 0.0
          0.0312 -0.00455 0.0
          0.0299 -0.00455 0.0
          0.0286 -0.00455 0.0
          0.0273 -0.00455 0.0
          0.026 -0.00455 0.0
          0.0247 -0.00455 0.0
          0.0234 -0.00455 0.0
          0.0221 -0.00455 0.0
          0.0208 -0.00455 0.0
          0.0195 -0.00455 0.0
          0.0182 -0.00455 0.0
          0.0169 -0.00455 0.0
          0.0156 -0.00455 0.0
          0.0143 -0.00455 0.0
          0.013 -0.00455 0.0
          0.0117 -0.00455 0.0
          0.0104 -0.00455 0.0
          0.0091 -0.00455 0.0
          0.0078 -0.00455 0.0
          0.0065 -0.00455 0.0
          0.0052 -0.00455 0.0
          0.0039 -0.00455 0.0
          0.0026 -0.00455 0.0
          0.0013 -0.00455 0.0
          0 -0.00455 0.0
          0.039 -0.00585 0.0
          0.0377 -0.00585 0.0
          0.0364 -0.00585 0.0
          0.0351 -0.00585 0.0
          0.0338 -0.00585 0.0
          0.0325 -0.00585 0.0
          0.0312 -0.00585 0.0
          0.0299 -0.00585 0.0
          0.0286 -0.00585 0.0
          0.0273 -0.00585 0.0
          0.026 -0.00585 0.0
          0.0247 -0.00585 0.0
          0.0234 -0.00585 0.0
          0.0221 -0.00585 0.0
          0.0208 -0.00585 0.0
          0.0195 -0.00585 0.0
          0.0182 -0.00585 0.0
          0.0169 -0.00585 0.0
          0.0156 -0.00585 0.0
          0.0143 -0.00585 0.0
          0.013 -0.00585 0.0
          0.0117 -0.00585 0.0
          0.0104 -0.00585 0.0
          0.0091 -0.00585 0.0
          0.0078 -0.00585 0.0
          0.0065 -0.00585 0.0
          0.0052 -0.00585 0.0
          0.0039 -0.00585 0.0
          0.0026 -0.00585 0.0
          0.0013 -0.00585 0.0
          0 -0.00585 0.0
          0.039 -0.00715 0.0
          0.0377 -0.00715 0.0
          0.0364 -0.00715 0.0
          0.0351 -0.00715 0.0
          0.0338 -0.00715 0.0
          0.0325 -0.00715 0.0
          0.0312 -0.00715 0.0
          0.0299 -0.00715 0.0
          0.0286 -0.00715 0.0
          0.0273 -0.00715 0.0
          0.026 -0.00715 0.0
          0.0247 -0.00715 0.0
          0.0234 -0.00715 0.0
          0.0221 -0.00715 0.0
          0.0208 -0.00715 0.0
          0.0195 -0.00715 0.0
          0.0182 -0.00715 0.0
          0.0169 -0.00715 0.0
          0.0156 -0.00715 0.0
          0.0143 -0.00715 0.0
          0.013 -0.00715 0.0
          0.0117 -0.00715 0.0
          0.0104 -0.00715 0.0
          0.0091 -0.00715 0.0
          0.0078 -0.00715 0.0
          0.0065 -0.00715 0.0
          0.0052 -0.00715 0.0
          0.0039 -0.00715 0.0
          0.0026 -0.00715 0.0
          0.0013 -0.00715 0.0
          0 -0.00715 0.0
          0.039 -0.00845 0.0
          0.0377 -0.00845 0.0
          0.0364 -0.00845 0.0
          0.0351 -0.00845 0.0
          0.0338 -0.00845 0.0
          0.0325 -0.00845 0.0
          0.0312 -0.00845 0.0
          0.0299 -0.00845 0.0
          0.0286 -0.00845 0.0
          0.0273 -0.00845 0.0
          0.026 -0.00845 0.0
          0.0247 -0.00845 0.0
          0.0234 -0.00845 0.0
          0.0221 -0.00845 0.0
          0.0208 -0.00845 0.0
          0.0195 -0.00845 0.0
          0.0182 -0.00845 0.0
          0.0169 -0.00845 0.0
          0.0156 -0.00845 0.0
          0.0143 -0.00845 0.0
          0.013 -0.00845 0.0
          0.0117 -0.00845 0.0
          0.0104 -0.00845 0.0
          0.0091 -0.00845 0.0
          0.0078 -0.00845 0.0
          0.0065 -0.00845 0.0
          0.0052 -0.00845 0.0
          0.0039 -0.00845 0.0
          0.0026 -0.00845 0.0
          0.0013 -0.00845 0.0
          0 -0.00845 0.0
          0.039 -0.00975 0.0
          0.0377 -0.00975 0.0
          0.0364 -0.00975 0.0
          0.0351 -0.00975 0.0
          0.0338 -0.00975 0.0
          0.0325 -0.00975 0.0
          0.0312 -0.00975 0.0
          0.0299 -0.00975 0.0
          0.0286 -0.00975 0.0
          0.0273 -0.00975 0.0
          0.026 -0.00975 0.0
          0.0247 -0.00975 0.0
          0.0234 -0.00975 0.0
          0.0221 -0.00975 0.0
          0.0208 -0.00975 0.0
          0.0195 -0.00975 0.0
          0.0182 -0.00975 0.0
          0.0169 -0.00975 0.0
          0.0156 -0.00975 0.0
          0.0143 -0.00975 0.0
          0.013 -0.00975 0.0
          0.0117 -0.00975 0.0
          0.0104 -0.00975 0.0
          0.0091 -0.00975 0.0
          0.0078 -0.00975 0.0
          0.0065 -0.00975 0.0
          0.0052 -0.00975 0.0
          0.0039 -0.00975 0.0
          0.0026 -0.00975 0.0
          0.0013 -0.00975 0.0
          0 -0.00975 0.0
          0.039 -0.01105 0.0
          0.0377 -0.01105 0.0
          0.0364 -0.01105 0.0
          0.0351 -0.01105 0.0
          0.0338 -0.01105 0.0
          0.0325 -0.01105 0.0
          0.0312 -0.01105 0.0
          0.0299 -0.01105 0.0
          0.0286 -0.01105 0.0
          0.0273 -0.01105 0.0
          0.026 -0.01105 0.0
          0.0247 -0.01105 0.0
          0.0234 -0.01105 0.0
          0.0221 -0.01105 0.0
          0.0208 -0.01105 0.0
          0.0195 -0.01105 0.0
          0.0182 -0.01105 0.0
          0.0169 -0.01105 0.0
          0.0156 -0.01105 0.0
          0.0143 -0.01105 0.0
          0.013 -0.01105 0.0
          0.0117 -0.01105 0.0
          0.0104 -0.01105 0.0
          0.0091 -0.01105 0.0
          0.0078 -0.01105 0.0
          0.0065 -0.01105 0.0
          0.0052 -0.01105 0.0
          0.0039 -0.01105 0.0
          0.0026 -0.01105 0.0
          0.0013 -0.01105 0.0
          0 -0.01105 0.0
          0.039 -0.01235 0.0
          0.0377 -0.01235 0.0
          0.0364 -0.01235 0.0
          0.0351 -0.01235 0.0
          0.0338 -0.01235 0.0
          0.0325 -0.01235 0.0
          0.0312 -0.01235 0.0
          0.0299 -0.01235 0.0
          0.0286 -0.01235 0.0
          0.0273 -0.01235 0.0
          0.026 -0.01235 0.0
          0.0247 -0.01235 0.0
          0.0234 -0.01235 0.0
          0.0221 -0.01235 0.0
          0.0208 -0.01235 0.0
          0.0195 -0.01235 0.0
          0.0182 -0.01235 0.0
          0.0169 -0.01235 0.0
          0.0156 -0.01235 0.0
          0.0143 -0.01235 0.0
          0.013 -0.01235 0.0
          0.0117 -0.01235 0.0
          0.0104 -0.01235 0.0
          0.0091 -0.01235 0.0
          0.0078 -0.01235 0.0
          0.0065 -0.01235 0.0
          0.0052 -0.01235 0.0
          0.0039 -0.01235 0.0
          0.0026 -0.01235 0.0
          0.0013 -0.01235 0.0
          0 -0.01235 0.0
          0.039 -0.01365 0.0
          0.0377 -0.01365 0.0
          0.0364 -0.01365 0.0
          0.0351 -0.01365 0.0
          0.0338 -0.01365 0.0
          0.0325 -0.01365 0.0
          0.0312 -0.01365 0.0
          0.0299 -0.01365 0.0
          0.0286 -0.01365 0.0
          0.0273 -0.01365 0.0
          0.026 -0.01365 0.0
          0.0247 -0.01365 0.0
          0.0234 -0.01365 0.0
          0.0221 -0.01365 0.0
          0.0208 -0.01365 0.0
          0.0195 -0.01365 0.0
          0.0182 -0.01365 0.0
          0.0169 -0.01365 0.0
          0.0156 -0.01365 0.0
          0.0143 -0.01365 0.0
          0.013 -0.01365 0.0
          0.0117 -0.01365 0.0
          0.0104 -0.01365 0.0
          0.0091 -0.01365 0.0
          0.0078 -0.01365 0.0
          0.0065 -0.01365 0.0
          0.0052 -0.01365 0.0
          0.0039 -0.01365 0.0
          0.0026 -0.01365 0.0
          0.0013 -0.01365 0.0
          0 -0.01365 0.0
          0.039 -0.01495 0.0
          0.0377 -0.01495 0.0
          0.0364 -0.01495 0.0
          0.0351 -0.01495 0.0
          0.0338 -0.01495 0.0
          0.0325 -0.01495 0.0
          0.0312 -0.01495 0.0
          0.0299 -0.01495 0.0
          0.0286 -0.01495 0.0
          0.0273 -0.01495 0.0
          0.026 -0.01495 0.0
          0.0247 -0.01495 0.0
          0.0234 -0.01495 0.0
          0.0221 -0.01495 0.0
          0.0208 -0.01495 0.0