<?xml version="1.0"?>
<VTKFile type="UnstructuredGrid" version="0.1" byte_order="LittleEndian">
  <UnstructuredGrid>
    <Piece NumberOfPoints="961" NumberOfCells="900">
      <PointData Scalars="Temperature">
        <DataArray type="Float32" Name="Temperature" format="ascii">
          21.0002
          21.0034
          21.0068
          21.0105
          21.0148
          21.0199
          21.0263
          21.0342
          21.043
          21.0509
          21.0566
          21.0596
          21.0609
          21.0612
          21.0613
          21.0614
          21.0613
          21.0612
          21.0609
          21.0596
          21.0566
          21.0509
          21.043
          21.0342
          21.0263
          21.0199
          21.0148
          21.0105
          21.0068
          21.0034
          21.0002
          21.0034
          21.0555
          21.1101
          21.1701
          21.239
          21.3218
          21.4254
          21.5575
          21.7052
          21.8429
          21.9358
          21.9831
          21.9985
          22.0034
          22.005
          22.0053
          22.005
          22.0034
          21.9985
          21.9831
          21.9358
          21.8429
          21.7052
          21.5575
          21.4254
          21.3218
          21.239
          21.1701
          21.1101
          21.0555
          21.0034
          21.0064
          21.1052
          21.2086
          21.3216
          21.4506
          21.6045
          21.7964
          22.0449
          22.3884
          22.6843
          22.8841
          22.9304
          22.9452
          22.95
          22.9515
          22.9518
          22.9515
          22.95
          22.9452
          22.9304
          22.8841
          22.6843
          22.3884
          22.0449
          21.7964
          21.6045
          21.4506
          21.3216
          21.2086
          21.1052
          21.0064
          21.0091
          21.1508
          21.2984
          21.4586
          21.6395
          21.8524
          22.1144
          22.455
          22.9231
          23.9025
          23.9027
          23.9027
          23.9028
          23.9028
          23.9028
          23.9028
          23.9028
          23.9028
          23.9028
          23.9027
          23.9027
          23.9025
          22.9231
          22.455
          22.1144
          21.8524
          21.6395
          21.4586
          21.2984
          21.1508
          21.0091
          21.0116
          21.1908
          21.3769
          21.5768
          21.7993
          22.056
          22.3639
          22.7488
          23.2694
          23.9032
          23.9033
          23.9033
          23.9034
          23.9034
          23.9034
          23.9034
          23.9034
          23.9034
          23.9034
          23.9033
          23.9033
          23.9032
          23.2694
          22.7488
          22.3639
          22.056
          21.7993
          21.5768
          21.3769
          21.1908
          21.0116
          21.0137
          21.2248
          21.4427
          21.6744
          21.928
          22.2136
          22.5439
          22.9358
          23.3955
          23.9049
          23.905
          23.905
          23.905
          23.9051
          23.9051
          23.9051
          23.9051
          23.9051
          23.905
          23.905
          23.905
          23.9049
          23.3955
          22.9358
          22.5439
          22.2136
          21.928
          21.6744
          21.4427
          21.2248
          21.0137
          21.0154
          21.2525
          21.496
          21.752
          22.0275
          22.3299
          22.6674
          23.0457
          23.4634
          23.9077
          23.9077
          23.9078
          23.9078
          23.9078
          23.9078
          23.9078
          23.9078
          23.9078
          23.9078
          23.9078
          23.9077
          23.9077
          23.4634
          23.0457
          22.6674
          22.3299
          22.0275
          21.752
          21.496
          21.2525
          21.0154
          21.0167
          21.2747
          21.5381
          21.8122
          22.1023
          22.4138
          22.751
          23.1157
          23.5053
          23.9115
          23.9116
          23.9116
          23.9116
          23.9116
          23.9116
          23.9116
          23.9116
          23.9116
          23.9116
          23.9116
          23.9116
          23.9115
          23.5053
          23.1157
          22.751
          22.4138
          22.1023
          21.8122
          21.5381
          21.2747
          21.0167
          21.0178
          21.2919
          21.5706
          21.8579
          22.1579
          22.4742
          22.8091
          23.1631
          23.5339
          23.9164
          23.9164
          23.9165
          23.9165
          23.9165
          23.9165
          23.9165
          23.9165
          23.9165
          23.9165
          23.9165
          23.9164
          23.9164
          23.5339
          23.1631
          22.8091
          22.4742
          22.1579
          21.8579
          21.5706
          21.2919
          21.0178
          21.0186
          21.3053
          21.5955
          21.8926
          22.1994
          22.5183
          22.8508
          23.197
          23.5552
          23.9224
          23.9224
          23.9224
          23.9224
          23.9225
          23.9225
          23.9225
          23.9225
          23.9225
          23.9224
          23.9224
          23.9224
          23.9224
          23.5552
          23.197
          22.8508
          22.5183
          22.1994
          21.8926
          21.5955
          21.3053
          21.0186
          21.0192
          21.3157
          21.6148
          21.9191
          22.2308
          22.5514
          22.8821
          23.2227
          23.5725
          23.9294
          23.9294
          23.9294
          23.9295
          23.9295
          23.9295
          23.9295
          23.9295
          23.9295
          23.9295
          23.9294
          23.9294
          23.9294
          23.5725
          23.2227
          22.8821
          22.5514
          22.2308
          21.9191
          21.6148
          21.3157
          21.0192
          21.0198
          21.3239
          21.6301
          21.9401
          22.2555
          22.5774
          22.9068
          23.2436
          23.5875
          23.9375
          23.9375
          23.9375
          23.9376
          23.9376
          23.9376
          23.9376
          23.9376
          23.9376
          23.9376
          23.9375
          23.9375
          23.9375
          23.5875
          23.2436
          22.9068
          22.5774
          22.2555
          21.9401
          21.6301
          21.3239
          21.0198
          21.0202
          21.3308
          21.6428
          21.9575
          22.276
          22.5991
          22.9276
          23.2618
          23.6016
          23.9467
          23.9467
          23.9467
          23.9467
          23.9467
          23.9467
          23.9467
          23.9467
          23.9467
          23.9467
          23.9467
          23.9467
          23.9467
          23.6016
          23.2618
          22.9276
          22.5991
          22.276
          21.9575
          21.6428
          21.3308
          21.0202
          21.0206
          21.3369
          21.6541
          21.973
          22.2942
          22.6186
          22.9466
          23.2788
          23.6155
          23.9569
          23.9569
          23.9569
          23.9569
          23.957
          23.957
          23.957
          23.957
          23.957
          23.9569
          23.9569
          23.9569
          23.9569
          23.6155
          23.2788
          22.9466
          22.6186
          22.2942
          21.973
          21.6541
          21.3369
          21.0206
          21.0209
          21.3429
          21.6651
          21.9881
          22.312
          22.6376
          22.9654
          23.2959
          23.63
          23.9682
          23.9682
          23.9682
          23.9682
          23.9683
          23.9683
          23.9683
          23.9683
          23.9683
          23.9682
          23.9682
          23.9682
          23.9682
          23.63
          23.2959
          22.9654
          22.6376
          22.312
          21.9881
          21.6651
          21.3429
          21.0209
          21.0213
          21.3492
          21.6769
          22.0041
          22.3309
          22.6578
          22.9852
          23.3141
          23.6455
          23.9805
          23.9806
          23.9806
          23.9806
          23.9806
          23.9806
          23.9806
          23.9806
          23.9806
          23.9806
          23.9806
          23.9806
          23.9805
          23.6455
          23.3141
          22.9852
          22.6578
          22.3309
          22.0041
          21.6769
          21.3492
          21.0213
          21.0218
          21.3566
          21.6905
          22.0226
          22.3526
          22.6808
          23.0077
          23.3345
          23.6627
          23.994
          23.994
          23.994
          23.994
          23.9941
          23.9941
          23.9941
          23.9941
          23.9941
          23.994
          23.994
          23.994
          23.994
          23.6627
          23.3345
          23.0077
          22.6808
          22.3526
          22.0226
          21.6905
          21.3566
          21.0218
          21.0224
          21.3659
          21.7073
          22.0453
          22.3791
          22.7085
          23.0344
          23.3583
          23.6822
          24.0084
          24.0085
          24.0085
          24.0085
          24.0086
          24.0086
          24.0086
          24.0086
          24.0086
          24.0085
          24.0085
          24.0085
          24.0084
          23.6822
          23.3583
          23.0344
          22.7085
          22.3791
          22.0453
          21.7073
          21.3659
          21.0224
          21.0231
          21.3779
          21.7293
          22.0748
          22.4128
          22.7433
          23.0673
          23.3868
          23.7047
          24.024
          24.024
          24.024
          24.0241
          24.0241
          24.0242
          24.0242
          24.0242
          24.0241
          24.0241
          24.024
          24.024
          24.024
          23.7047
          23.3868
          23.0673
          22.7433
          22.4128
          22.0748
          21.7293
          21.3779
          21.0231
          21.0242
          21.3944
          21.7592
          22.1142
          22.4574
          22.7885
          23.109
          23.4219
          23.731
          24.0405
          24.0406
          24.0406
          24.0407
          24.0408
          24.0409
          24.0409
          24.0409
          24.0408
          24.0407
          24.0406
          24.0406
          24.0405
          23.731
          23.4219
          23.109
          22.7885
          22.4574
          22.1142
          21.7592
          21.3944
          21.0242
          21.0255
          21.4177
          21.8008
          22.1685
          22.5176
          22.8481
          23.1627
          23.4657
          23.7623
          24.0581
          24.0582
          24.0583
          24.0584
          24.0586
          24.0587
          24.0587
          24.0587
          24.0586
          24.0584
          24.0583
          24.0582
          24.0581
          23.7623
          23.4657
          23.1627
          22.8481
          22.5176
          22.1685
          21.8008
          21.4177
          21.0255
          21.0281
          21.4515
          21.8606
          22.2449
          22.6003
          22.9279
          23.2325
          23.5207
          23.7998
          24.0767
          24.0768
          24.077
          24.0772
          24.0774
          24.0776
          24.0776
          24.0776
          24.0774
          24.0772
          24.077
          24.0768
          24.0767
          23.7998
          23.5207
          23.2325
          22.9279
          22.6003
          22.2449
          21.8606
          21.4515
          21.0281
          21.0294
          21.5032
          21.9489
          22.3547
          22.7151
          23.0349
          23.3231
          23.5898
          23.8446
          24.0962
          24.0963
          24.0966
          24.097
          24.0974
          24.0977
          24.0978
          24.0977
          24.0974
          24.097
          24.0966
          24.0963
          24.0962
          23.8446
          23.5898
          23.3231
          23.0349
          22.7151
          22.3547
          21.9489
          21.5032
          21.0294
          21.0433
          21.5811
          22.0852
          22.5152
          22.8753
          23.1775
          23.4393
          23.6755
          23.8979
          24.1166
          24.1168
          24.1173
          24.1179
          24.1186
          24.119
          24.1192
          24.119
          24.1186
          24.1179
          24.1173
          24.1168
          24.1166
          23.8979
          23.6755
          23.4393
          23.1775
          22.8753
          22.5152
          22.0852
          21.5811
          21.0433
          21.0134
          21.7302
          22.2987
          22.7558
          23.0965
          23.3634
          23.5849
          23.7795
          23.9603
          24.1376
          24.1379
          24.1388
          24.1399
          24.141
          24.1418
          24.1421
          24.1418
          24.141
          24.1399
          24.1388
          24.1379
          24.1376
          23.9603
          23.7795
          23.5849
          23.3634
          23.0965
          22.7558
          22.2987
          21.7302
          21.0134
          21.2042
          21.9344
          22.6854
          23.1096
          23.3907
          23.5963
          23.7604
          23.9016
          24.0314
          24.1589
          24.1595
          24.161
          24.163
          24.1649
          24.1661
          24.1666
          24.1661
          24.1649
          24.163
          24.161
          24.1595
          24.1589
          24.0314
          23.9016
          23.7604
          23.5963
          23.3907
          23.1096
          22.6854
          21.9344
          21.2042
          20.4752
          22.7571
          23.3162
          23.5905
          23.7553
          23.8713
          23.9623
          24.0399
          24.1104
          24.18
          24.1812
          24.1839
          24.1874
          24.1904
          24.1924
          24.1931
          24.1924
          24.1904
          24.1874
          24.1839
          24.1812
          24.18
          24.1104
          24.0399
          23.9623
          23.8713
          23.7553
          23.5905
          23.3162
          22.7571
          20.4752
          24.1456
          24.1503
          24.1549
          24.1601
          24.1663
          24.1735
          24.1815
          24.1902
          24.1985
          24.2001
          24.2016
          24.2074
          24.2134
          24.2182
          24.2211
          24.2221
          24.2211
          24.2182
          24.2134
          24.2074
          24.2016
          24.2001
          24.1985
          24.1902
          24.1815
          24.1735
          24.1663
          24.1601
          24.1549
          24.1503
          24.1456
          24.1473
          24.1508
          24.155
          24.1602
          24.1663
          24.1735
          24.1817
          24.1907
          24.1999
          24.2099
          24.2209
          24.2322
          24.242
          24.2489
          24.2528
          24.2541
          24.2528
          24.2489
          24.242
          24.2322
          24.2209
          24.2099
          24.1999
          24.1907
          24.1817
          24.1735
          24.1663
          24.1602
          24.155
          24.1508
          24.1473
          24.1493
          24.1516
          24.1553
          24.1603
          24.1664
          24.1736
          24.182
          24.1917
          24.2033
          24.2183
          24.2399
          24.2611
          24.2748
          24.2835
          24.2883
          24.2898
          24.2883
          24.2835
          24.2748
          24.2611
          24.2399
          24.2183
          24.2033
          24.1917
          24.182
          24.1736
          24.1664
          24.1603
          24.1553
          24.1516
          24.1493
          24.1507
          24.1519
          24.1554
          24.1603
          24.1664
          24.1737
          24.1822
          24.1922
          24.2047
          24.2218
          24.2496
          24.277
          24.2925
          24.3019
          24.307
          24.3086
          24.307
          24.3019
          24.2925
          24.277
          24.2496
          24.2218
          24.2047
          24.1922
          24.1822
          24.1737
          24.1664
          24.1603
          24.1554
          24.1519
          24.1507
        </DataArray>
      </PointData>
      <CellData>
      </CellData>
      <Points>
        <DataArray type="Float32" NumberOfComponents="3" format="ascii">
          0.039 0.00195 0.0
          0.0377 0.00195 0.0
          0.0364 0.00195 0.0
          0.0351 0.00195 0.0
          0.0338 0.00195 0.0
          0.0325 0.00195 0.0
          0.0312 0.00195 0.0
          0.0299 0.00195 0.0
          0.0286 0.00195 0.0
          0.0273 0.00195 0.0
          0.026 0.00195 0.0
          0.0247 0.00195 0.0
          0.0234 0.00195 0.0
          0.0221 0.00195 0.0
          0.0208 0.00195 0.0
          0.0195 0.00195 0.0
          0.0182 0.00195 0.0
          0.0169 0.00195 0.0
          0.0156 0.00195 0.0
          0.0143 0.00195 0.0
          0.013 0.00195 0.0
          0.0117 0.00195 0.0
          0.0104 0.00195 0.0
          0.0091 0.00195 0.0
          0.0078 0.00195 0.0
          0.0065 0.00195 0.0
          0.0052 0.00195 0.0
          0.0039 0.00195 0.0
          0.0026 0.00195 0.0
          0.0013 0.00195 0.0
          0 0.00195 0.0
          0.039 0.00065 0.0
          0.0377 0.00065 0.0
          0.0364 0.00065 0.0
          0.0351 0.00065 0.0
          0.0338 0.00065 0.0
          0.0325 0.00065 0.0
          0.0312 0.00065 0.0
          0.0299 0.00065 0.0
          0.0286 0.00065 0.0
          0.0273 0.00065 0.0
          0.026 0.00065 0.0
          0.0247 0.00065 0.0
          0.0234 0.00065 0.0
          0.0221 0.00065 0.0
          0.0208 0.00065 0.0
          0.0195 0.00065 0.0
          0.0182 0.00065 0.0
          0.0169 0.00065 0.0
          0.0156 0.00065 0.0
          0.0143 0.00065 0.0
          0.013 0.00065 0.0
          0.0117 0.00065 0.0
          0.0104 0.00065 0.0
          0.0091 0.00065 0.0
          0.0078 0.00065 0.0
          0.0065 0.00065 0.0
          0.0052 0.00065 0.0
          0.0039 0.00065 0.0
          0.0026 0.00065 0.0
          0.0013 0.00065 0.0
          0 0.00065 0.0
          0.039 -0.00065 0.0
          0.0377 -0.00065 0.0
          0.0364 -0.00065 0.0
          0.0351 -0.00065 0.0
          0.0338 -0.00065 0.0
          0.0325 -0.00065 0.0
          0.0312 -0.00065 0.0
          0.0299 -0.00065 0.0
          0.0286 -0.00065 0.0
          0.0273 -0.00065 0.0
          0.026 -0.00065 0.0
          0.0247 -0.00065 0.0
          0.0234 -0.00065 0.0
          0.0221 -0.00065 0.0
          0.0208 -0.00065 0.0
          0.0195 -0.00065 0.0
          0.0182 -0.00065 0.0
          0.0169 -0.00065 0.0
          0.0156 -0.00065 0.0
          0.0143 -0.00065 0.0
          0.013 -0.00065 0.0
          0.0117 -0.00065 0.0
          0.0104 -0.00065 0.0
          0.0091 -0.00065 0.0
          0.0078 -0.00065 0.0
          0.0065 -0.00065 0.0
          0.0052 -0.00065 0.0
          0.0039 -0.00065 0.0
          0.0026 -0.00065 0.0
          0.0013 -0.00065 0.0
          0 -0.00065 0.0
          0.039 -0.00195 0.0
          0.0377 -0.00195 0.0
          0.0364 -0.00195 0.0
          0.0351 -0.00195 0.0
          0.0338 -0.00195 0.0
          0.0325 -0.00195 0.0
          0.0312 -0.00195 0.0
          0.0299 -0.00195 0.0
          0.0286 -0.00195 0.0
          0.0273 -0.00195 0.0
          0.026 -0.00195 0.0
          0.0247 -0.00195 0.0
          0.0234 -0.00195 0.0
          0.0221 -0.00195 0.0
          0.0208 -0.00195 0.0
          0.0195 -0.00195 0.0
          0.0182 -0.00195 0.0
          0.0169 -0.00195 0.0
          0.0156 -0.00195 0.0
          0.0143 -0.00195 0.0
          0.013 -0.00195 0.0
          0.0117 -0.00195 0.0
          0.0104 -0.00195 0.0
          0.0091 -0.00195 0.0
          0.0078 -0.00195 0.0
          0.0065 -0.00195 0.0
          0.0052 -0.00195 0.0
          0.0039 -0.00195 0.0
          0.0026 -0.00195 0.0
          0.0013 -0.00195 0.0
          0 -0.00195 0.0
          0.039 -0.00325 0.0
          0.0377 -0.00325 0.0
          0.0364 -0.00325 0.0
          0.0351 -0.00325 0.0
          0.0338 -0.00325 0.0
          0.0325 -0.00325 0.0
          0.0312 -0.00325 0.0
          0.0299 -0.00325 0.0
          0.0286 -0.00325 0.0
          0.0273 -0.00325 0.0
          0.026 -0.00325 0.0
          0.0247 -0.00325 0.0
          0.0234 -0.00325 0.0
          0.0221 -0.00325 0.0
          0.0208 -0.00325 0.0
          0.0195 -0.00325 0.0
          0.0182 -0.00325 0.0
          0.0169 -0.00325 0.0
          0.0156 -0.00325 0.0
          0.0143 -0.00325 0.0
          0.013 -0.00325 0.0
          0.0117 -0.00325 0.0
          0.0104 -0.00325 0.0
          0.0091 -0.00325 0.0
          0.0078 -0.00325 0.0
          0.0065 -0.00325 0.0
          0.0052 -0.00325 0.0
          0.0039 -0.00325 0.0
          0.0026 -0.00325 0.0
          0.0013 -0.00325 0.0
          0 -0.00325 0.0
          0.039 -0.00455 0.0
          0.0377 -0.00455 0.0
          0.0364 -0.00455 0.0
          0.0351 -0.00455 0.0
          0.0338 -0.00455 0.0
          0.0325 -0.00455 0.0
          0.0312 -0.00455 0.0
          0.0299 -0.00455 0.0
          0.0286 -0.00455 0.0
          0.0273 -0.00455 0.0
          0.026 -0.00455 0.0
          0.0247 -0.00455 0.0
          0.0234 -0.00455 0.0
          0.0221 -0.00455 0.0
          0.0208 -0.00455 0.0
          0.0195 -0.00455 0.0
          0.0182 -0.00455 0.0
          0.0169 -0.00455 0.0
          0.0156 -0.00455 0.0
          0.0143 -0.00455 0.0
          0.013 -0.00455 0.0
          0.0117 -0.00455 0.0
          0.0104 -0.00455 0.0
          0.0091 -0.00455 0.0
          0.0078 -0.00455 0.0
          0.0065 -0.00455 0.0
          0.0052 -0.00455 0.0
          0.0039 -0.00455 0.0
          0.0026 -0.00455 0.0
          0.0013 -0.00455 0.0
          0 -0.00455 0.0
          0.039 -0.00585 0.0
          0.0377 -0.00585 0.0
          0.0364 -0.00585 0.0
          0.0351 -0.00585 0.0
          0.0338 -0.00585 0.0
          0.0325 -0.00585 0.0
          0.0312 -0.00585 0.0
          0.0299 -0.00585 0.0
          0.0286 -0.00585 0.0
          0.0273 -0.00585 0.0
          0.026 -0.00585 0.0
          0.0247 -0.00585 0.0
          0.0234 -0.00585 0.0
          0.0221 -0.00585 0.0
          0.0208 -0.00585 0.0
          0.0195 -0.00585 0.0
          0.0182 -0.00585 0.0
          0.0169 -0.00585 0.0
          0.0156 -0.00585 0.0
          0.0143 -0.00585 0.0
          0.013 -0.00585 0.0
          0.0117 -0.00585 0.0
          0.0104 -0.00585 0.0
          0.0091 -0.00585 0.0
          0.0078 -0.00585 0.0
          0.0065 -0.00585 0.0
          0.0052 -0.00585 0.0
          0.0039 -0.00585 0.0
          0.0026 -0.00585 0.0
          0.0013 -0.00585 0.0
          0 -0.00585 0.0
          0.039 -0.00715 0.0
          0.0377 -0.00715 0.0
          0.0364 -0.00715 0.0
          0.0351 -0.00715 0.0
          0.0338 -0.00715 0.0
          0.0325 -0.00715 0.0
          0.0312 -0.00715 0.0
          0.0299 -0.00715 0.0
          0.0286 -0.00715 0.0
          0.0273 -0.00715 0.0
          0.026 -0.00715 0.0
          0.0247 -0.00715 0.0
          0.0234 -0.00715 0.0
          0.0221 -0.00715 0.0
          0.0208 -0.00715 0.0
          0.0195 -0.00715 0.0
          0.0182 -0.00715 0.0
          0.0169 -0.00715 0.0
          0.0156 -0.00715 0.0
          0.0143 -0.00715 0.0
          0.013 -0.00715 0.0
          0.0117 -0.00715 0.0
          0.0104 -0.00715 0.0
          0.0091 -0.00715 0.0
          0.0078 -0.00715 0.0
          0.0065 -0.00715 0.0
          0.0052 -0.00715 0.0
          0.0039 -0.00715 0.0
          0.0026 -0.00715 0.0
          0.0013 -0.00715 0.0
          0 -0.00715 0.0
          0.039 -0.00845 0.0
          0.0377 -0.00845 0.0
          0.0364 -0.00845 0.0
          0.0351 -0.00845 0.0
          0.0338 -0.00845 0.0
          0.0325 -0.00845 0.0
          0.0312 -0.00845 0.0
          0.0299 -0.00845 0.0
          0.0286 -0.00845 0.0
          0.0273 -0.00845 0.0
          0.026 -0.00845 0.0
          0.0247 -0.00845 0.0
          0.0234 -0.00845 0.0
          0.0221 -0.00845 0.0
          0.0208 -0.00845 0.0
          0.0195 -0.00845 0.0
          0.0182 -0.00845 0.0
          0.0169 -0.00845 0.0
          0.0156 -0.00845 0.0
          0.0143 -0.00845 0.0
          0.013 -0.00845 0.0
          0.0117 -0.00845 0.0
          0.0104 -0.00845 0.0
          0.0091 -0.00845 0.0
          0.0078 -0.00845 0.0
          0.0065 -0.00845 0.0
          0.0052 -0.00845 0.0
          0.0039 -0.00845 0.0
          0.0026 -0.00845 0.0
          0.0013 -0.00845 0.0
          0 -0.00845 0.0
          0.039 -0.00975 0.0
          0.0377 -0.00975 0.0
          0.0364 -0.00975 0.0
          0.0351 -0.00975 0.0
          0.0338 -0.00975 0.0
          0.0325 -0.00975 0.0
          0.0312 -0.00975 0.0
          0.0299 -0.00975 0.0
          0.0286 -0.00975 0.0
          0.0273 -0.00975 0.0
          0.026 -0.00975 0.0
          0.0247 -0.00975 0.0
          0.0234 -0.00975 0.0
          0.0221 -0.00975 0.0
          0.0208 -0.00975 0.0
          0.0195 -0.00975 0.0
          0.0182 -0.00975 0.0
          0.0169 -0.00975 0.0
          0.0156 -0.00975 0.0
          0.0143 -0.00975 0.0
          0.013 -0.00975 0.0
          0.0117 -0.00975 0.0
          0.0104 -0.00975 0.0
          0.0091 -0.00975 0.0
          0.0078 -0.00975 0.0
          0.0065 -0.00975 0.0
          0.0052 -0.00975 0.0
          0.0039 -0.00975 0.0
          0.0026 -0.00975 0.0
          0.0013 -0.00975 0.0
          0 -0.00975 0.0
          0.039 -0.01105 0.0
          0.0377 -0.01105 0.0
          0.0364 -0.01105 0.0
          0.0351 -0.01105 0.0
          0.0338 -0.01105 0.0
          0.0325 -0.01105 0.0
          0.0312 -0.01105 0.0
          0.0299 -0.01105 0.0
          0.0286 -0.01105 0.0
          0.0273 -0.01105 0.0
          0.026 -0.01105 0.0
          0.0247 -0.01105 0.0
          0.0234 -0.01105 0.0
          0.0221 -0.01105 0.0
          0.0208 -0.01105 0.0
          0.0195 -0.01105 0.0
          0.0182 -0.01105 0.0
          0.0169 -0.01105 0.0
          0.0156 -0.01105 0.0
          0.0143 -0.01105 0.0
          0.013 -0.01105 0.0
          0.0117 -0.01105 0.0
          0.0104 -0.01105 0.0
          0.0091 -0.01105 0.0
          0.0078 -0.01105 0.0
          0.0065 -0.01105 0.0
          0.0052 -0.01105 0.0
          0.0039 -0.01105 0.0
          0.0026 -0.01105 0.0
          0.0013 -0.01105 0.0
          0 -0.01105 0.0
          0.039 -0.01235 0.0
          0.0377 -0.01235 0.0
          0.0364 -0.01235 0.0
          0.0351 -0.01235 0.0
          0.0338 -0.01235 0.0
          0.0325 -0.01235 0.0
          0.0312 -0.01235 0.0
          0.0299 -0.01235 0.0
          0.0286 -0.01235 0.0
          0.0273 -0.01235 0.0
          0.026 -0.01235 0.0
          0.0247 -0.01235 0.0
          0.0234 -0.01235 0.0
          0.0221 -0.01235 0.0
          0.0208 -0.01235 0.0
          0.0195 -0.01235 0.0
          0.0182 -0.01235 0.0
          0.0169 -0.01235 0.0
          0.0156 -0.01235 0.0
          0.0143 -0.01235 0.0
          0.013 -0.01235 0.0
          0.0117 -0.01235 0.0
          0.0104 -0.01235 0.0
          0.0091 -0.01235 0.0
          0.0078 -0.01235 0.0
          0.0065 -0.01235 0.0
          0.0052 -0.01235 0.0
          0.0039 -0.01235 0.0
          0.0026 -0.01235 0.0
          0.0013 -0.01235 0.0
          0 -0.01235 0.0
          0.039 -0.01365 0.0
          0.0377 -0.01365 0.0
          0.0364 -0.01365 0.0
          0.0351 -0.01365 0.0
          0.0338 -0.01365 0.0
          0.0325 -0.01365 0.0
          0.0312 -0.01365 0.0
          0.0299 -0.01365 0.0
          0.0286 -0.01365 0.0
          0.0273 -0.01365 0.0
          0.026 -0.01365 0.0
          0.0247 -0.01365 0.0
          0.0234 -0.01365 0.0
          0.0221 -0.01365 0.0
          0.0208 -0.01365 0.0
          0.0195 -0.01365 0.0
          0.0182 -0.01365 0.0
          0.0169 -0.01365 0.0
          0.0156 -0.01365 0.0
          0.0143 -0.01365 0.0
          0.013 -0.01365 0.0
          0.0117 -0.01365 0.0
          0.0104 -0.01365 0.0
          0.0091 -0.01365 0.0
          0.0078 -0.01365 0.0
          0.0065 -0.01365 0.0
          0.0052 -0.01365 0.0
          0.0039 -0.01365 0.0
          0.0026 -0.01365 0.0
          0.0013 -0.01365 0.0
          0 -0.01365 0.0
          0.039 -0.01495 0.0
          0.0377 -0.01495 0.0
          0.0364 -0.01495 0.0
          0.0351 -0.01495 0.0
          0.0338 -0.01495 0.0
          0.0325 -0.01495 0.0
          0.0312 -0.01495 0.0
          0.0299 -0.01495 0.0
          0.0286 -0.01495 0.0
          0.0273 -0.01495 0.0
          0.026 -0.01495 0.0
          0.0247 -0.01495 0.0
          0.0234 -0.01495 0.0
          0.0221 -0.01495 0.0