<?xml version="1.0"?>
<VTKFile type="UnstructuredGrid" version="0.1" byte_order="LittleEndian">
  <UnstructuredGrid>
    <Piece NumberOfPoints="961" NumberOfCells="900">
      <PointData Scalars="Temperature">
        <DataArray type="Float32" Name="Temperature" format="ascii">
          21.0006
          21.0092
          21.0183
          21.0282
          21.0396
          21.0533
          21.0705
          21.0915
          21.1147
          21.1356
          21.1508
          21.1589
          21.1622
          21.1631
          21.1634
          21.1635
          21.1634
          21.1631
          21.1622
          21.1589
          21.1508
          21.1356
          21.1147
          21.0915
          21.0705
          21.0533
          21.0396
          21.0282
          21.0183
          21.0092
          21.0006
          21.0091
          21.1494
          21.2965
          21.4576
          21.6421
          21.8633
          22.1389
          22.49
          22.8819
          23.247
          23.4932
          23.6188
          23.6595
          23.6727
          23.6768
          23.6778
          23.6768
          23.6727
          23.6595
          23.6188
          23.4932
          23.247
          22.8819
          22.49
          22.1389
          21.8633
          21.6421
          21.4576
          21.2965
          21.1494
          21.0091
          21.0172
          21.2834
          21.5617
          21.865
          22.2104
          22.6211
          23.1319
          23.7918
          24.7023
          25.4863
          26.0156
          26.1383
          26.1776
          26.1903
          26.1943
          26.1952
          26.1943
          26.1903
          26.1776
          26.1383
          26.0156
          25.4863
          24.7023
          23.7918
          23.1319
          22.6211
          22.2104
          21.865
          21.5617
          21.2834
          21.0172
          21.0246
          21.406
          21.8033
          22.2332
          22.7174
          23.2857
          23.9827
          24.8866
          26.1259
          28.717
          28.7173
          28.7175
          28.7176
          28.7176
          28.7177
          28.7177
          28.7177
          28.7176
          28.7176
          28.7175
          28.7173
          28.717
          26.1259
          24.8866
          23.9827
          23.2857
          22.7174
          22.2332
          21.8033
          21.406
          21.0246
          21.0312
          21.5138
          22.0141
          22.5506
          23.1461
          23.8311
          24.6498
          25.6701
          27.0466
          28.7179
          28.718
          28.7181
          28.7182
          28.7183
          28.7183
          28.7183
          28.7183
          28.7183
          28.7182
          28.7181
          28.718
          28.7179
          27.0466
          25.6701
          24.6498
          23.8311
          23.1461
          22.5506
          22.0141
          21.5138
          21.0312
          21.0367
          21.6049
          22.1907
          22.8123
          23.4907
          24.2523
          25.1303
          26.1678
          27.381
          28.7197
          28.7198
          28.7199
          28.7199
          28.72
          28.72
          28.72
          28.72
          28.72
          28.7199
          28.7199
          28.7198
          28.7197
          27.381
          26.1678
          25.1303
          24.2523
          23.4907
          22.8123
          22.1907
          21.6049
          21.0367
          21.0413
          21.6793
          22.3335
          23.02
          23.7564
          24.5624
          25.4585
          26.4589
          27.5587
          28.7224
          28.7225
          28.7226
          28.7226
          28.7227
          28.7227
          28.7227
          28.7227
          28.7227
          28.7226
          28.7226
          28.7225
          28.7224
          27.5587
          26.4589
          25.4585
          24.5624
          23.7564
          23.02
          22.3335
          21.6793
          21.0413
          21.0449
          21.7382
          22.4454
          23.1799
          23.9552
          24.7847
          25.679
          26.642
          27.6653
          28.7262
          28.7263
          28.7263
          28.7264
          28.7264
          28.7264
          28.7265
          28.7264
          28.7264
          28.7264
          28.7263
          28.7263
          28.7262
          27.6653
          26.642
          25.679
          24.7847
          23.9552
          23.1799
          22.4454
          21.7382
          21.0449
          21.0477
          21.7839
          22.5313
          23.3005
          24.1015
          24.9428
          25.8299
          26.763
          27.7349
          28.731
          28.731
          28.7311
          28.7311
          28.7312
          28.7312
          28.7312
          28.7312
          28.7312
          28.7311
          28.7311
          28.731
          28.731
          27.7349
          26.763
          25.8299
          24.9428
          24.1015
          23.3006
          22.5313
          21.7839
          21.0477
          21.0499
          21.8188
          22.5965
          23.3907
          24.2088
          25.0561
          25.9356
          26.8464
          27.7833
          28.7367
          28.7368
          28.7368
          28.7369
          28.7369
          28.7369
          28.7369
          28.7369
          28.7369
          28.7369
          28.7368
          28.7368
          28.7367
          27.7833
          26.8464
          25.9356
          25.0561
          24.2088
          23.3907
          22.5965
          21.8188
          21.0499
          21.0516
          21.8455
          22.6458
          23.4584
          24.2882
          25.1388
          26.0118
          26.9064
          27.819
          28.7435
          28.7435
          28.7436
          28.7436
          28.7437
          28.7437
          28.7437
          28.7437
          28.7437
          28.7436
          28.7436
          28.7435
          28.7435
          27.819
          26.9064
          26.0118
          25.1388
          24.2882
          23.4584
          22.6458
          21.8455
          21.0516
          21.0528
          21.8661
          22.6839
          23.5103
          24.3486
          25.2011
          26.069
          26.9517
          27.847
          28.7513
          28.7513
          28.7514
          28.7514
          28.7514
          28.7514
          28.7514
          28.7514
          28.7514
          28.7514
          28.7514
          28.7513
          28.7513
          27.847
          26.9517
          26.069
          25.2011
          24.3486
          23.5103
          22.6839
          21.8661
          21.0528
          21.0539
          21.8828
          22.7145
          23.5518
          24.3966
          25.2506
          26.1145
          26.9883
          27.8707
          28.76
          28.7601
          28.7601
          28.7602
          28.7602
          28.7602
          28.7602
          28.7602
          28.7602
          28.7602
          28.7601
          28.7601
          28.76
          27.8707
          26.9883
          26.1145
          25.2506
          24.3966
          23.5518
          22.7145
          21.8828
          21.0539
          21.0548
          21.8971
          22.7408
          23.5872
          24.4376
          25.2928
          26.1536
          27.0201
          27.8924
          28.7698
          28.7699
          28.7699
          28.7699
          28.77
          28.77
          28.77
          28.77
          28.77
          28.7699
          28.7699
          28.7699
          28.7698
          27.8924
          27.0201
          26.1536
          25.2928
          24.4376
          23.5872
          22.7408
          21.8971
          21.0548
          21.0556
          21.9106
          22.7655
          23.6206
          24.4761
          25.3324
          26.1903
          27.0505
          27.9136
          28.7806
          28.7806
          28.7807
          28.7807
          28.7808
          28.7808
          28.7808
          28.7808
          28.7808
          28.7807
          28.7807
          28.7806
          28.7806
          27.9136
          27.0505
          26.1903
          25.3324
          24.4761
          23.6206
          22.7655
          21.9106
          21.0556
          21.0565
          21.9248
          22.7915
          23.6555
          24.5162
          25.3736
          26.2285
          27.0821
          27.936
          28.7924
          28.7924
          28.7925
          28.7925
          28.7926
          28.7926
          28.7926
          28.7926
          28.7926
          28.7925
          28.7925
          28.7924
          28.7924
          27.936
          27.0821
          26.2285
          25.3736
          24.5162
          23.6555
          22.7915
          21.9248
          21.0565
          21.0575
          21.9413
          22.8216
          23.6958
          24.5624
          25.4208
          26.2719
          27.1177
          27.961
          28.8052
          28.8052
          28.8053
          28.8053
          28.8054
          28.8054
          28.8054
          28.8054
          28.8054
          28.8053
          28.8053
          28.8052
          28.8052
          27.961
          27.1177
          26.2719
          25.4208
          24.5624
          23.6958
          22.8216
          21.9413
          21.0575
          21.0588
          21.9621
          22.8595
          23.7463
          24.6196
          25.4787
          26.3247
          27.1604
          27.9901
          28.8189
          28.819
          28.8191
          28.8191
          28.8192
          28.8192
          28.8192
          28.8192
          28.8192
          28.8191
          28.8191
          28.819
          28.8189
          27.9901
          27.1604
          26.3247
          25.4787
          24.6196
          23.7463
          22.8595
          21.9621
          21.0588
          21.0606
          21.99
          22.9098
          23.8128
          24.6945
          25.5535
          26.3919
          27.2137
          28.0253
          28.8337
          28.8338
          28.8338
          28.8339
          28.834
          28.834
          28.8341
          28.834
          28.834
          28.8339
          28.8338
          28.8338
          28.8337
          28.0253
          27.2137
          26.3919
          25.5535
          24.6945
          23.8128
          22.9098
          21.99
          21.0606
          21.063
          22.0286
          22.9793
          23.9038
          24.7956
          25.6532
          26.4799
          27.2822
          28.0687
          28.8494
          28.8495
          28.8496
          28.8497
          28.8498
          28.8499
          28.8499
          28.8499
          28.8498
          28.8497
          28.8496
          28.8495
          28.8494
          28.0687
          27.2822
          26.4799
          25.6532
          24.7956
          23.9038
          22.9793
          22.0286
          21.063
          21.0663
          22.0842
          23.0781
          24.0315
          24.9351
          25.7883
          26.597
          27.3711
          28.1231
          28.8661
          28.8662
          28.8664
          28.8665
          28.8667
          28.8668
          28.8669
          28.8668
          28.8667
          28.8665
          28.8664
          28.8662
          28.8661
          28.1231
          27.3711
          26.597
          25.7884
          24.9351
          24.0315
          23.0781
          22.0842
          21.0663
          21.0726
          22.1657
          23.2222
          24.214
          25.1302
          25.9728
          26.7531
          27.4869
          28.1914
          28.8837
          28.8838
          28.8841
          28.8843
          28.8846
          28.8848
          28.8849
          28.8848
          28.8846
          28.8843
          28.8841
          28.8838
          28.8837
          28.1914
          27.4869
          26.7531
          25.9728
          25.1302
          24.214
          23.2222
          22.1657
          21.0726
          21.0756
          22.2921
          23.437
          24.4795
          25.4048
          26.2244
          26.96
          27.6364
          28.2768
          28.9022
          28.9023
          28.9027
          28.9032
          28.9036
          28.904
          28.9041
          28.904
          28.9036
          28.9032
          28.9027
          28.9023
          28.9022
          28.2768
          27.6364
          26.96
          26.2244
          25.4048
          24.4795
          23.437
          22.2921
          21.0756
          21.1104
          22.4842
          23.772
          24.8714
          25.7921
          26.5636
          27.2293
          27.8258
          28.3818
          28.9213
          28.9216
          28.9222
          28.923
          28.9238
          28.9243
          28.9245
          28.9243
          28.9238
          28.923
          28.9222
          28.9216
          28.9213
          28.3818
          27.8258
          27.2293
          26.5636
          25.7921
          24.8714
          23.772
          22.4842
          21.1104
          21.0349
          22.8545
          24.3
          25.4631
          26.3306
          27.0093
          27.5699
          28.0587
          28.5076
          28.941
          28.9414
          28.9425
          28.9439
          28.9452
          28.9461
          28.9464
          28.9461
          28.9452
          28.9439
          28.9425
          28.9414
          28.941
          28.5076
          28.0587
          27.5699
          27.0093
          26.3306
          25.4631
          24.3
          22.8545
          21.0349
          21.5141
          23.3626
          25.2618
          26.3371
          27.0496
          27.5696
          27.9823
          28.3341
          28.6533
          28.9609
          28.9616
          28.9635
          28.9658
          28.968
          28.9694
          28.97
          28.9694
          28.968
          28.9658
          28.9635
          28.9616
          28.9609
          28.6533
          28.3341
          27.9823
          27.5696
          27.0496
          26.3371
          25.2618
          23.3626
          21.5141
          19.6817
          25.4242
          26.8346
          27.5269
          27.9417
          28.2312
          28.4558
          28.645
          28.8152
          28.98
          28.9814
          28.9849
          28.989
          28.9925
          28.9948
          28.9956
          28.9948
          28.9925
          28.989
          28.9849
          28.9814
          28.98
          28.8152
          28.645
          28.4558
          28.2312
          27.9417
          27.5269
          26.8346
          25.4242
          19.6817
          28.9054
          28.9165
          28.9254
          28.9344
          28.9442
          28.9548
          28.9663
          28.9783
          28.9901
          28.9963
          29
          29.0071
          29.014
          29.0194
          29.0227
          29.0238
          29.0227
          29.0194
          29.014
          29.0071
          29
          28.9963
          28.9901
          28.9783
          28.9663
          28.9548
          28.9442
          28.9344
          28.9254
          28.9165
          28.9054
          28.9098
          28.9176
          28.9258
          28.9346
          28.9443
          28.9549
          28.9665
          28.9788
          28.9914
          29.0045
          29.0179
          29.0309
          29.0418
          29.0494
          29.0538
          29.0553
          29.0538
          29.0494
          29.0418
          29.0309
          29.0179
          29.0045
          28.9914
          28.9788
          28.9665
          28.9549
          28.9443
          28.9346
          28.9258
          28.9176
          28.9098
          28.9146
          28.9196
          28.9264
          28.9348
          28.9444
          28.955
          28.9668
          28.9797
          28.9944
          29.0123
          29.0361
          29.0591
          29.0741
          29.0836
          29.0889
          29.0906
          29.0889
          29.0836
          29.0741
          29.0591
          29.0361
          29.0123
          28.9944
          28.9797
          28.9668
          28.955
          28.9444
          28.9348
          28.9264
          28.9196
          28.9146
          28.9182
          28.9204
          28.9268
          28.935
          28.9445
          28.9551
          28.9669
          28.9802
          28.9957
          29.0155
          29.0456
          29.0748
          29.0916
          29.1018
          29.1075
          29.1093
          29.1075
          29.1018
          29.0916
          29.0748
          29.0456
          29.0155
          28.9957
          28.9802
          28.9669
          28.9551
          28.9445
          28.935
          28.9268
          28.9204
          28.9182
        </DataArray>
      </PointData>
      <CellData>
      </CellData>
      <Points>
        <DataArray type="Float32" NumberOfComponents="3" format="ascii">
          0.039 0.00195 0.0
          0.0377 0.00195 0.0
          0.0364 0.00195 0.0
          0.0351 0.00195 0.0
          0.0338 0.00195 0.0
          0.0325 0.00195 0.0
          0.0312 0.00195 0.0
          0.0299 0.00195 0.0
          0.0286 0.00195 0.0
          0.0273 0.00195 0.0
          0.026 0.00195 0.0
          0.0247 0.00195 0.0
          0.0234 0.00195 0.0
          0.0221 0.00195 0.0
          0.0208 0.00195 0.0
          0.0195 0.00195 0.0
          0.0182 0.00195 0.0
          0.0169 0.00195 0.0
          0.0156 0.00195 0.0
          0.0143 0.00195 0.0
          0.013 0.00195 0.0
          0.0117 0.00195 0.0
          0.0104 0.00195 0.0
          0.0091 0.00195 0.0
          0.0078 0.00195 0.0
          0.0065 0.00195 0.0
          0.0052 0.00195 0.0
          0.0039 0.00195 0.0
          0.0026 0.00195 0.0
          0.0013 0.00195 0.0
          0 0.00195 0.0
          0.039 0.00065 0.0
          0.0377 0.00065 0.0
          0.0364 0.00065 0.0
          0.0351 0.00065 0.0
          0.0338 0.00065 0.0
          0.0325 0.00065 0.0
          0.0312 0.00065 0.0
          0.0299 0.00065 0.0
          0.0286 0.00065 0.0
          0.0273 0.00065 0.0
          0.026 0.00065 0.0
          0.0247 0.00065 0.0
          0.0234 0.00065 0.0
          0.0221 0.00065 0.0
          0.0208 0.00065 0.0
          0.0195 0.00065 0.0
          0.0182 0.00065 0.0
          0.0169 0.00065 0.0
          0.0156 0.00065 0.0
          0.0143 0.00065 0.0
          0.013 0.00065 0.0
          0.0117 0.00065 0.0
          0.0104 0.00065 0.0
          0.0091 0.00065 0.0
          0.0078 0.00065 0.0
          0.0065 0.00065 0.0
          0.0052 0.00065 0.0
          0.0039 0.00065 0.0
          0.0026 0.00065 0.0
          0.0013 0.00065 0.0
          0 0.00065 0.0
          0.039 -0.00065 0.0
          0.0377 -0.00065 0.0
          0.0364 -0.00065 0.0
          0.0351 -0.00065 0.0
          0.0338 -0.00065 0.0
          0.0325 -0.00065 0.0
          0.0312 -0.00065 0.0
          0.0299 -0.00065 0.0
          0.0286 -0.00065 0.0
          0.0273 -0.00065 0.0
          0.026 -0.00065 0.0
          0.0247 -0.00065 0.0
          0.0234 -0.00065 0.0
          0.0221 -0.00065 0.0
          0.0208 -0.00065 0.0
          0.0195 -0.00065 0.0
          0.0182 -0.00065 0.0
          0.0169 -0.00065 0.0
          0.0156 -0.00065 0.0
          0.0143 -0.00065 0.0
          0.013 -0.00065 0.0
          0.0117 -0.00065 0.0
          0.0104 -0.00065 0.0
          0.0091 -0.00065 0.0
          0.0078 -0.00065 0.0
          0.0065 -0.00065 0.0
          0.0052 -0.00065 0.0
          0.0039 -0.00065 0.0
          0.0026 -0.00065 0.0
          0.0013 -0.00065 0.0
          0 -0.00065 0.0
          0.039 -0.00195 0.0
          0.0377 -0.00195 0.0
          0.0364 -0.00195 0.0
          0.0351 -0.00195 0.0
          0.0338 -0.00195 0.0
          0.0325 -0.00195 0.0
          0.0312 -0.00195 0.0
          0.0299 -0.00195 0.0
          0.0286 -0.00195 0.0
          0.0273 -0.00195 0.0
          0.026 -0.00195 0.0
          0.0247 -0.00195 0.0
          0.0234 -0.00195 0.0
          0.0221 -0.00195 0.0
          0.0208 -0.00195 0.0
          0.0195 -0.00195 0.0
          0.0182 -0.00195 0.0
          0.0169 -0.00195 0.0
          0.0156 -0.00195 0.0
          0.0143 -0.00195 0.0
          0.013 -0.00195 0.0
          0.0117 -0.00195 0.0
          0.0104 -0.00195 0.0
          0.0091 -0.00195 0.0
          0.0078 -0.00195 0.0
          0.0065 -0.00195 0.0
          0.0052 -0.00195 0.0
          0.0039 -0.00195 0.0
          0.0026 -0.00195 0.0
          0.0013 -0.00195 0.0
          0 -0.00195 0.0
          0.039 -0.00325 0.0
          0.0377 -0.00325 0.0
          0.0364 -0.00325 0.0
          0.0351 -0.00325 0.0
          0.0338 -0.00325 0.0
          0.0325 -0.00325 0.0
          0.0312 -0.00325 0.0
          0.0299 -0.00325 0.0
          0.0286 -0.00325 0.0
          0.0273 -0.00325 0.0
          0.026 -0.00325 0.0
          0.0247 -0.00325 0.0
          0.0234 -0.00325 0.0
          0.0221 -0.00325 0.0
          0.0208 -0.00325 0.0
          0.0195 -0.00325 0.0
          0.0182 -0.00325 0.0
          0.0169 -0.00325 0.0
          0.0156 -0.00325 0.0
          0.0143 -0.00325 0.0
          0.013 -0.00325 0.0
          0.0117 -0.00325 0.0
          0.0104 -0.00325 0.0
          0.0091 -0.00325 0.0
          0.0078 -0.00325 0.0
          0.0065 -0.00325 0.0
          0.0052 -0.00325 0.0
          0.0039 -0.00325 0.0
          0.0026 -0.00325 0.0
          0.0013 -0.00325 0.0
          0 -0.00325 0.0
          0.039 -0.00455 0.0
          0.0377 -0.00455 0.0
          0.0364 -0.00455 0.0
          0.0351 -0.00455 0.0
          0.0338 -0.00455 0.0
          0.0325 -0.00455 0.0
          0.0312 -0.00455 0.0
          0.0299 -0.00455 0.0
          0.0286 -0.00455 0.0
          0.0273 -0.00455 0.0
          0.026 -0.00455 0.0
          0.0247 -0.00455 0.0
          0.0234 -0.00455 0.0
          0.0221 -0.00455 0.0
          0.0208 -0.00455 0.0
          0.0195 -0.00455 0.0
          0.0182 -0.00455 0.0
          0.0169 -0.00455 0.0
          0.0156 -0.00455 0.0
          0.0143 -0.00455 0.0
          0.013 -0.00455 0.0
          0.0117 -0.00455 0.0
          0.0104 -0.00455 0.0
          0.0091 -0.00455 0.0
          0.0078 -0.00455 0.0
          0.0065 -0.00455 0.0
          0.0052 -0.00455 0.0
          0.0039 -0.00455 0.0
          0.0026 -0.00455 0.0
          0.0013 -0.00455 0.0
          0 -0.00455 0.0
          0.039 -0.00585 0.0
          0.0377 -0.00585 0.0
          0.0364 -0.00585 0.0
          0.0351 -0.00585 0.0
          0.0338 -0.00585 0.0
          0.0325 -0.00585 0.0
          0.0312 -0.00585 0.0
          0.0299 -0.00585 0.0
          0.0286 -0.00585 0.0
          0.0273 -0.00585 0.0
          0.026 -0.00585 0.0
          0.0247 -0.00585 0.0
          0.0234 -0.00585 0.0
          0.0221 -0.00585 0.0
          0.0208 -0.00585 0.0
          0.0195 -0.00585 0.0
          0.0182 -0.00585 0.0
          0.0169 -0.00585 0.0
          0.0156 -0.00585 0.0
          0.0143 -0.00585 0.0
          0.013 -0.00585 0.0
          0.0117 -0.00585 0.0
          0.0104 -0.00585 0.0
          0.0091 -0.00585 0.0
          0.0078 -0.00585 0.0
          0.0065 -0.00585 0.0
          0.0052 -0.00585 0.0
          0.0039 -0.00585 0.0
          0.0026 -0.00585 0.0
          0.0013 -0.00585 0.0
          0 -0.00585 0.0
          0.039 -0.00715 0.0
          0.0377 -0.00715 0.0
          0.0364 -0.00715 0.0
          0.0351 -0.00715 0.0
          0.0338 -0.00715 0.0
          0.0325 -0.00715 0.0
          0.0312 -0.00715 0.0
          0.0299 -0.00715 0.0
          0.0286 -0.00715 0.0
          0.0273 -0.00715 0.0
          0.026 -0.00715 0.0
          0.0247 -0.00715 0.0
          0.0234 -0.00715 0.0
          0.0221 -0.00715 0.0
          0.0208 -0.00715 0.0
          0.0195 -0.00715 0.0
          0.0182 -0.00715 0.0
          0.0169 -0.00715 0.0
          0.0156 -0.00715 0.0
          0.0143 -0.00715 0.0
          0.013 -0.00715 0.0
          0.0117 -0.00715 0.0
          0.0104 -0.00715 0.0
          0.0091 -0.00715 0.0
          0.0078 -0.00715 0.0
          0.0065 -0.00715 0.0
          0.0052 -0.00715 0.0
          0.0039 -0.00715 0.0
          0.0026 -0.00715 0.0
          0.0013 -0.00715 0.0
          0 -0.00715 0.0
          0.039 -0.00845 0.0
          0.0377 -0.00845 0.0
          0.0364 -0.00845 0.0
          0.0351 -0.00845 0.0
          0.0338 -0.00845 0.0
          0.0325 -0.00845 0.0
          0.0312 -0.00845 0.0
          0.0299 -0.00845 0.0
          0.0286 -0.00845 0.0
          0.0273 -0.00845 0.0
          0.026 -0.00845 0.0
          0.0247 -0.00845 0.0
          0.0234 -0.00845 0.0
          0.0221 -0.00845 0.0
          0.0208 -0.00845 0.0
          0.0195 -0.00845 0.0
          0.0182 -0.00845 0.0
          0.0169 -0.00845 0.0
          0.0156 -0.00845 0.0
          0.0143 -0.00845 0.0
          0.013 -0.00845 0.0
          0.0117 -0.00845 0.0
          0.0104 -0.00845 0.0
          0.0091 -0.00845 0.0
          0.0078 -0.00845 0.0
          0.0065 -0.00845 0.0
          0.0052 -0.00845 0.0
          0.0039 -0.00845 0.0
          0.0026 -0.00845 0.0
          0.0013 -0.00845 0.0
          0 -0.00845 0.0
          0.039 -0.00975 0.0
          0.0377 -0.00975 0.0
          0.0364 -0.00975 0.0
          0.0351 -0.00975 0.0
          0.0338 -0.00975 0.0
          0.0325 -0.00975 0.0
          0.0312 -0.00975 0.0
          0.0299 -0.00975 0.0
          0.0286 -0.00975 0.0
          0.0273 -0.00975 0.0
          0.026 -0.00975 0.0
          0.0247 -0.00975 0.0
          0.0234 -0.00975 0.0
          0.0221 -0.00975 0.0
          0.0208 -0.00975 0.0
          0.0195 -0.00975 0.0
          0.0182 -0.00975 0.0
          0.0169 -0.00975 0.0
          0.0156 -0.00975 0.0
          0.0143 -0.00975 0.0
          0.013 -0.00975 0.0
          0.0117 -0.00975 0.0
          0.0104 -0.00975 0.0
          0.0091 -0.00975 0.0
          0.0078 -0.00975 0.0
          0.0065 -0.00975 0.0
          0.0052 -0.00975 0.0
          0.0039 -0.00975 0.0
          0.0026 -0.00975 0.0
          0.0013 -0.00975 0.0
          0 -0.00975 0.0
          0.039 -0.01105 0.0
          0.0377 -0.01105 0.0
          0.0364 -0.01105 0.0
          0.0351 -0.01105 0.0
          0.0338 -0.01105 0.0
          0.0325 -0.01105 0.0
          0.0312 -0.01105 0.0
          0.0299 -0.01105 0.0
          0.0286 -0.01105 0.0
          0.0273 -0.01105 0.0
          0.026 -0.01105 0.0
          0.0247 -0.01105 0.0
          0.0234 -0.01105 0.0
          0.0221 -0.01105 0.0
          0.0208 -0.01105 0.0
          0.0195 -0.01105 0.0
          0.0182 -0.01105 0.0
          0.0169 -0.01105 0.0
          0.0156 -0.01105 0.0
          0.0143 -0.01105 0.0
          0.013 -0.01105 0.0
          0.0117 -0.01105 0.0
          0.0104 -0.01105 0.0
          0.0091 -0.01105 0.0
          0.0078 -0.01105 0.0
          0.0065 -0.01105 0.0
          0.0052 -0.01105 0.0
          0.0039 -0.01105 0.0
          0.0026 -0.01105 0.0
          0.0013 -0.01105 0.0
          0 -0.01105 0.0
          0.039 -0.01235 0.0
          0.0377 -0.01235 0.0
          0.0364 -0.01235 0.0
          0.0351 -0.01235 0.0
          0.0338 -0.01235 0.0
          0.0325 -0.01235 0.0
          0.0312 -0.01235 0.0
          0.0299 -0.01235 0.0
          0.0286 -0.01235 0.0
          0.0273 -0.01235 0.0
          0.026 -0.01235 0.0
          0.0247 -0.01235 0.0
          0.0234 -0.01235 0.0
          0.0221 -0.01235 0.0
          0.0208 -0.01235 0.0
          0.0195 -0.01235 0.0
          0.0182 -0.01235 0.0
          0.0169 -0.01235 0.0
          0.0156 -0.01235 0.0
          0.0143 -0.01235 0.0
          0.013 -0.01235 0.0
          0.0117 -0.01235 0.0
          0.0104 -0.01235 0.0
          0.0091 -0.01235 0.0
          0.0078 -0.01235 0.0
          0.0065 -0.01235 0.0
          0.0052 -0.01235 0.0
          0.0039 -0.01235 0.0
          0.0026 -0.01235 0.0
          0.0013 -0.01235 0.0
          0 -0.01235 0.0
          0.039 -0.01365 0.0
          0.0377 -0.01365 0.0
          0.0364 -0.01365 0.0
          0.0351 -0.01365 0.0
          0.0338 -0.01365 0.0
          0.0325 -0.01365 0.0
          0.0312 -0.01365 0.0
          0.0299 -0.01365 0.0
          0.0286 -0.01365 0.0
          0.0273 -0.01365 0.0
          0.026 -0.01365 0.0
          0.0247 -0.01365 0.0
          0.0234 -0.01365 0.0
          0.0221 -0.01365 0.0
          0.0208 -0.01365 0.0
          0.0195 -0.01365 0.0
          0.0182 -0.01365 0.0
          0.0169 -0.01365 0.0
          0.0156 -0.01365 0.0
          0.0143 -0.01365 0.0
          0.013 -0.01365 0.0
          0.0117 -0.01365 0.0
          0.0104 -0.01365 0.0
          0.0091 -0.01365 0.0
          0.0078 -0.01365 0.0
          0.0065 -0.01365 0.0
          0.0052 -0.01365 0.0
          0.0039 -0.01365 0.0
          0.0026 -0.01365 0.0
          0.0013 -0.01365 0.0
          0 -0.01365 0.0
          0.039 -0.01495 0.0
          0.0377 -0.01495 0.0
          0.0364 -0.01495 0.0
          0.0351 -0.01495 0.0
          0.0338 -0.01495 0.0
          0.0325 -0.01495 0.0
          0.0312 -0.01495 0.0
          0.0299 -0.01495 0.0
          0.0286 -0.01495 0.0
          0.0273 -0.01495 0.0
          0.026 -0.01495 0.0
          0.0247 -0.01495 0.0
          0.0234 -0.01495 0.0
          0.0221 -0.01495 0.0
          0.0208 -0.01495 0.0