<?xml version="1.0"?>
<VTKFile type="UnstructuredGrid" version="0.1" byte_order="LittleEndian">
  <UnstructuredGrid>
    <Piece NumberOfPoints="961" NumberOfCells="900">
      <PointData Scalars="Temperature">
        <DataArray type="Float32" Name="Temperature" format="ascii">
          21.0009
          21.0144
          21.0286
          21.0441
          21.0619
          21.0833
          21.1102
          21.1428
          21.179
          21.2116
          21.2353
          21.2479
          21.253
          21.2544
          21.255
          21.2551
          21.255
          21.2544
          21.253
          21.2479
          21.2353
          21.2116
          21.179
          21.1428
          21.1102
          21.0833
          21.0619
          21.0441
          21.0286
          21.0144
          21.0009
          21.0142
          21.2337
          21.4636
          21.7153
          22.0035
          22.3486
          22.7785
          23.326
          23.9367
          24.5056
          24.8894
          25.0851
          25.1485
          25.1691
          25.1755
          25.177
          25.1755
          25.1691
          25.1485
          25.0851
          24.8894
          24.5056
          23.9367
          23.326
          22.7785
          22.3486
          22.0035
          21.7153
          21.4636
          21.2337
          21.0142
          21.0269
          21.4431
          21.8781
          22.3522
          22.8914
          23.5325
          24.3292
          25.3578
          26.7766
          27.9981
          28.8227
          29.0139
          29.0753
          29.0951
          29.1013
          29.1027
          29.1013
          29.0951
          29.0753
          29.0139
          28.8227
          27.9981
          26.7766
          25.3578
          24.3292
          23.5325
          22.8914
          22.3522
          21.8781
          21.4431
          21.0269
          21.0385
          21.6349
          22.2558
          22.9276
          23.6838
          24.5706
          25.6576
          27.0664
          28.9971
          33.0328
          33.0333
          33.0335
          33.0337
          33.0338
          33.0339
          33.0339
          33.0339
          33.0338
          33.0337
          33.0335
          33.0333
          33.0328
          28.9971
          27.0664
          25.6576
          24.5706
          23.6838
          22.9276
          22.2558
          21.6349
          21.0385
          21.0488
          21.8033
          22.5853
          23.4235
          24.3534
          25.4224
          26.699
          28.2889
          30.4327
          33.0339
          33.0341
          33.0343
          33.0344
          33.0345
          33.0346
          33.0346
          33.0346
          33.0345
          33.0344
          33.0343
          33.0341
          33.0339
          30.4327
          28.2889
          26.699
          25.4224
          24.3534
          23.4235
          22.5853
          21.8033
          21.0488
          21.0574
          21.9457
          22.8613
          23.8323
          24.8916
          26.0799
          27.4487
          29.0652
          30.9538
          33.0358
          33.0359
          33.036
          33.0362
          33.0362
          33.0363
          33.0363
          33.0363
          33.0362
          33.0362
          33.036
          33.0359
          33.0358
          30.9538
          29.0652
          27.4487
          26.0799
          24.8916
          23.8323
          22.8613
          21.9457
          21.0574
          21.0646
          22.0618
          23.0842
          24.1566
          25.3064
          26.5637
          27.9605
          29.5185
          31.2298
          33.0385
          33.0387
          33.0388
          33.0389
          33.0389
          33.039
          33.039
          33.039
          33.0389
          33.0389
          33.0388
          33.0387
          33.0385
          31.2298
          29.5185
          27.9605
          26.5637
          25.3064
          24.1566
          23.0842
          22.0618
          21.0646
          21.0702
          22.1538
          23.2589
          24.406
          25.6162
          26.91
          28.3037
          29.8031
          31.3946
          33.0422
          33.0423
          33.0424
          33.0425
          33.0426
          33.0426
          33.0426
          33.0426
          33.0426
          33.0425
          33.0424
          33.0423
          33.0422
          31.3946
          29.8031
          28.3037
          26.91
          25.6162
          24.406
          23.2589
          22.1538
          21.0702
          21.0746
          22.2249
          23.3926
          24.5938
          25.8438
          27.1557
          28.5378
          29.9901
          31.5009
          33.0469
          33.047
          33.0471
          33.0471
          33.0472
          33.0472
          33.0472
          33.0472
          33.0472
          33.0471
          33.0471
          33.047
          33.0469
          31.5009
          29.9901
          28.5378
          27.1557
          25.8438
          24.5938
          23.3926
          22.2249
          21.0746
          21.078
          22.2791
          23.4937
          24.7338
          26.0101
          27.331
          28.7008
          30.1178
          31.5735
          33.0525
          33.0526
          33.0526
          33.0527
          33.0527
          33.0528
          33.0528
          33.0528
          33.0527
          33.0527
          33.0526
          33.0526
          33.0525
          31.5735
          30.1178
          28.7008
          27.331
          26.0101
          24.7338
          23.4937
          22.2791
          21.078
          21.0805
          22.3204
          23.5701
          24.8383
          26.1326
          27.4582
          28.8174
          30.2085
          31.6257
          33.059
          33.0591
          33.0592
          33.0592
          33.0593
          33.0593
          33.0593
          33.0593
          33.0593
          33.0592
          33.0592
          33.0591
          33.059
          31.6257
          30.2085
          28.8174
          27.4582
          26.1326
          24.8383
          23.5701
          22.3204
          21.0805
          21.0825
          22.3522
          23.6286
          24.9179
          26.2249
          27.5531
          28.9038
          30.2758
          31.6654
          33.0665
          33.0666
          33.0666
          33.0667
          33.0667
          33.0668
          33.0668
          33.0668
          33.0667
          33.0667
          33.0666
          33.0666
          33.0665
          31.6654
          30.2758
          28.9038
          27.5531
          26.2249
          24.9179
          23.6286
          22.3522
          21.0825
          21.0841
          22.3775
          23.6753
          24.9809
          26.2976
          27.6274
          28.9714
          30.3288
          31.6978
          33.0749
          33.075
          33.0751
          33.0751
          33.0752
          33.0752
          33.0752
          33.0752
          33.0752
          33.0751
          33.0751
          33.075
          33.0749
          31.6978
          30.3288
          28.9714
          27.6274
          26.2976
          24.9809
          23.6753
          22.3775
          21.0841
          21.0854
          22.3992
          23.7149
          25.0343
          26.3589
          27.69
          29.0284
          30.3739
          31.7263
          33.0843
          33.0844
          33.0844
          33.0845
          33.0845
          33.0846
          33.0846
          33.0846
          33.0845
          33.0845
          33.0844
          33.0844
          33.0843
          31.7263
          30.3739
          29.0284
          27.6901
          26.3589
          25.0343
          23.7149
          22.3992
          21.0854
          21.0867
          22.4195
          23.7519
          25.0841
          26.416
          27.7481
          29.0813
          30.4162
          31.7537
          33.0946
          33.0947
          33.0948
          33.0948
          33.0949
          33.0949
          33.0949
          33.0949
          33.0949
          33.0948
          33.0948
          33.0947
          33.0946
          31.7537
          30.4162
          29.0813
          27.7481
          26.416
          25.0841
          23.7519
          22.4195
          21.0867
          21.088
          22.4407
          23.7906
          25.1359
          26.4752
          27.8082
          29.1359
          30.4598
          31.7822
          33.1059
          33.106
          33.106
          33.1061
          33.1061
          33.1062
          33.1062
          33.1062
          33.1061
          33.1061
          33.106
          33.106
          33.1059
          31.7822
          30.4598
          29.1359
          27.8082
          26.4752
          25.1359
          23.7906
          22.4407
          21.088
          21.0896
          22.4654
          23.8356
          25.1958
          26.5433
          27.877
          29.1981
          30.5091
          31.8141
          33.1181
          33.1182
          33.1182
          33.1183
          33.1184
          33.1184
          33.1184
          33.1184
          33.1184
          33.1183
          33.1182
          33.1182
          33.1181
          31.8141
          30.5091
          29.198
          27.877
          26.5433
          25.1958
          23.8356
          22.4654
          21.0896
          21.0915
          22.4966
          23.8923
          25.271
          26.6282
          27.962
          29.2742
          30.5687
          31.8519
          33.1312
          33.1313
          33.1314
          33.1315
          33.1316
          33.1316
          33.1316
          33.1316
          33.1316
          33.1315
          33.1314
          33.1313
          33.1312
          31.8519
          30.5687
          29.2742
          27.962
          26.6282
          25.271
          23.8923
          22.4966
          21.0915
          21.0941
          22.5386
          23.968
          25.3708
          26.7398
          28.0727
          29.3721
          30.6443
          31.8985
          33.1453
          33.1454
          33.1455
          33.1456
          33.1457
          33.1458
          33.1458
          33.1458
          33.1457
          33.1456
          33.1455
          33.1454
          33.1453
          31.8984
          30.6443
          29.3721
          28.0727
          26.7398
          25.3708
          23.968
          22.5386
          21.0941
          21.0979
          22.5972
          24.0731
          25.508
          26.8916
          28.2213
          29.5017
          30.7426
          31.9572
          33.1603
          33.1604
          33.1605
          33.1607
          33.1608
          33.1609
          33.1609
          33.1609
          33.1608
          33.1607
          33.1605
          33.1604
          33.1603
          31.9572
          30.7426
          29.5017
          28.2213
          26.8916
          25.508
          24.0731
          22.5971
          21.0979
          21.1028
          22.6816
          24.2231
          25.7015
          27.1023
          28.424
          29.6755
          30.872
          32.0322
          33.1762
          33.1763
          33.1765
          33.1767
          33.1769
          33.177
          33.1771
          33.177
          33.1769
          33.1767
          33.1765
          33.1763
          33.1762
          32.0322
          30.872
          29.6755
          28.424
          27.1023
          25.7015
          24.2231
          22.6816
          21.1028
          21.1124
          22.806
          24.4427
          25.9791
          27.3981
          28.7023
          29.909
          31.0422
          32.1282
          33.1929
          33.193
          33.1933
          33.1937
          33.194
          33.1942
          33.1943
          33.1942
          33.194
          33.1937
          33.1933
          33.193
          33.1929
          32.1282
          31.0422
          29.909
          28.7023
          27.3981
          25.9791
          24.4427
          22.806
          21.1124
          21.117
          22.9994
          24.771
          26.3843
          27.816
          29.0835
          30.2201
          31.2638
          32.2499
          33.2104
          33.2106
          33.211
          33.2116
          33.2121
          33.2125
          33.2126
          33.2125
          33.2121
          33.2116
          33.211
          33.2106
          33.2104
          32.2499
          31.2638
          30.2201
          29.0835
          27.816
          26.3843
          24.771
          22.9994
          21.117
          21.1705
          23.2937
          25.2841
          26.9835
          28.4068
          29.599
          30.6268
          31.5462
          32.4013
          33.2285
          33.2288
          33.2295
          33.2304
          33.2313
          33.232
          33.2322
          33.232
          33.2313
          33.2304
          33.2295
          33.2288
          33.2285
          32.4013
          31.5462
          30.6268
          29.599
          28.4068
          26.9835
          25.2841
          23.2937
          21.1705
          21.0541
          23.8624
          26.094
          27.8901
          29.2297
          30.2776
          31.1422
          31.8947
          32.5841
          33.247
          33.2475
          33.2487
          33.2503
          33.2518
          33.2528
          33.2532
          33.2528
          33.2518
          33.2503
          33.2487
          33.2475
          33.247
          32.5841
          31.8947
          31.1422
          30.2776
          29.2297
          27.8901
          26.094
          23.8624
          21.0541
          21.7919
          24.6429
          27.5713
          29.2304
          30.3296
          31.1314
          31.767
          32.3075
          32.7966
          33.2655
          33.2663
          33.2685
          33.2712
          33.2736
          33.2753
          33.2759
          33.2753
          33.2736
          33.2712
          33.2685
          33.2663
          33.2655
          32.7966
          32.3075
          31.767
          31.1314
          30.3296
          29.2304
          27.5713
          24.6428
          21.7919
          18.9703
          27.815
          29.9886
          31.0556
          31.6944
          32.1395
          32.4839
          32.7731
          33.0328
          33.2829
          33.2845
          33.2887
          33.2934
          33.2973
          33.2998
          33.3007
          33.2998
          33.2973
          33.2934
          33.2887
          33.2845
          33.2829
          33.0328
          32.7731
          32.4839
          32.1395
          31.6944
          31.0556
          29.9886
          27.815
          18.9703
          33.1723
          33.1891
          33.2019
          33.2143
          33.2273
          33.241
          33.2555
          33.2706
          33.2855
          33.2959
          33.3015
          33.3098
          33.3175
          33.3234
          33.3271
          33.3283
          33.3271
          33.3234
          33.3175
          33.3098
          33.3015
          33.2959
          33.2855
          33.2706
          33.2555
          33.241
          33.2273
          33.2143
          33.2019
          33.1891
          33.1723
          33.179
          33.1907
          33.2025
          33.2146
          33.2274
          33.2411
          33.2557
          33.2711
          33.2867
          33.3024
          33.3181
          33.3326
          33.3446
          33.3528
          33.3576
          33.3592
          33.3576
          33.3528
          33.3446
          33.3326
          33.3181
          33.3024
          33.2867
          33.2711
          33.2557
          33.2411
          33.2274
          33.2146
          33.2025
          33.1907
          33.179
          33.1865
          33.1938
          33.2035
          33.2149
          33.2276
          33.2413
          33.256
          33.2719
          33.2893
          33.3097
          33.3356
          33.3602
          33.3763
          33.3866
          33.3923
          33.3942
          33.3923
          33.3866
          33.3763
          33.3602
          33.3356
          33.3097
          33.2893
          33.2719
          33.256
          33.2413
          33.2276
          33.2149
          33.2035
          33.1938
          33.1865
          33.1919
          33.1951
          33.204
          33.2151
          33.2276
          33.2413
          33.2561
          33.2723
          33.2905
          33.3127
          33.3449
          33.3757
          33.3937
          33.4047
          33.4108
          33.4127
          33.4108
          33.4047
          33.3937
          33.3757
          33.3449
          33.3127
          33.2905
          33.2723
          33.2561
          33.2413
          33.2276
          33.2151
          33.204
          33.1951
          33.1919
        </DataArray>
      </PointData>
      <CellData>
      </CellData>
      <Points>
        <DataArray type="Float32" NumberOfComponents="3" format="ascii">
          0.039 0.00195 0.0
          0.0377 0.00195 0.0
          0.0364 0.00195 0.0
          0.0351 0.00195 0.0
          0.0338 0.00195 0.0
          0.0325 0.00195 0.0
          0.0312 0.00195 0.0
          0.0299 0.00195 0.0
          0.0286 0.00195 0.0
          0.0273 0.00195 0.0
          0.026 0.00195 0.0
          0.0247 0.00195 0.0
          0.0234 0.00195 0.0
          0.0221 0.00195 0.0
          0.0208 0.00195 0.0
          0.0195 0.00195 0.0
          0.0182 0.00195 0.0
          0.0169 0.00195 0.0
          0.0156 0.00195 0.0
          0.0143 0.00195 0.0
          0.013 0.00195 0.0
          0.0117 0.00195 0.0
          0.0104 0.00195 0.0
          0.0091 0.00195 0.0
          0.0078 0.00195 0.0
          0.0065 0.00195 0.0
          0.0052 0.00195 0.0
          0.0039 0.00195 0.0
          0.0026 0.00195 0.0
          0.0013 0.00195 0.0
          0 0.00195 0.0
          0.039 0.00065 0.0
          0.0377 0.00065 0.0
          0.0364 0.00065 0.0
          0.0351 0.00065 0.0
          0.0338 0.00065 0.0
          0.0325 0.00065 0.0
          0.0312 0.00065 0.0
          0.0299 0.00065 0.0
          0.0286 0.00065 0.0
          0.0273 0.00065 0.0
          0.026 0.00065 0.0
          0.0247 0.00065 0.0
          0.0234 0.00065 0.0
          0.0221 0.00065 0.0
          0.0208 0.00065 0.0
          0.0195 0.00065 0.0
          0.0182 0.00065 0.0
          0.0169 0.00065 0.0
          0.0156 0.00065 0.0
          0.0143 0.00065 0.0
          0.013 0.00065 0.0
          0.0117 0.00065 0.0
          0.0104 0.00065 0.0
          0.0091 0.00065 0.0
          0.0078 0.00065 0.0
          0.0065 0.00065 0.0
          0.0052 0.00065 0.0
          0.0039 0.00065 0.0
          0.0026 0.00065 0.0
          0.0013 0.00065 0.0
          0 0.00065 0.0
          0.039 -0.00065 0.0
          0.0377 -0.00065 0.0
          0.0364 -0.00065 0.0
          0.0351 -0.00065 0.0
          0.0338 -0.00065 0.0
          0.0325 -0.00065 0.0
          0.0312 -0.00065 0.0
          0.0299 -0.00065 0.0
          0.0286 -0.00065 0.0
          0.0273 -0.00065 0.0
          0.026 -0.00065 0.0
          0.0247 -0.00065 0.0
          0.0234 -0.00065 0.0
          0.0221 -0.00065 0.0
          0.0208 -0.00065 0.0
          0.0195 -0.00065 0.0
          0.0182 -0.00065 0.0
          0.0169 -0.00065 0.0
          0.0156 -0.00065 0.0
          0.0143 -0.00065 0.0
          0.013 -0.00065 0.0
          0.0117 -0.00065 0.0
          0.0104 -0.00065 0.0
          0.0091 -0.00065 0.0
          0.0078 -0.00065 0.0
          0.0065 -0.00065 0.0
          0.0052 -0.00065 0.0
          0.0039 -0.00065 0.0
          0.0026 -0.00065 0.0
          0.0013 -0.00065 0.0
          0 -0.00065 0.0
          0.039 -0.00195 0.0
          0.0377 -0.00195 0.0
          0.0364 -0.00195 0.0
          0.0351 -0.00195 0.0
          0.0338 -0.00195 0.0
          0.0325 -0.00195 0.0
          0.0312 -0.00195 0.0
          0.0299 -0.00195 0.0
          0.0286 -0.00195 0.0
          0.0273 -0.00195 0.0
          0.026 -0.00195 0.0
          0.0247 -0.00195 0.0
          0.0234 -0.00195 0.0
          0.0221 -0.00195 0.0
          0.0208 -0.00195 0.0
          0.0195 -0.00195 0.0
          0.0182 -0.00195 0.0
          0.0169 -0.00195 0.0
          0.0156 -0.00195 0.0
          0.0143 -0.00195 0.0
          0.013 -0.00195 0.0
          0.0117 -0.00195 0.0
          0.0104 -0.00195 0.0
          0.0091 -0.00195 0.0
          0.0078 -0.00195 0.0
          0.0065 -0.00195 0.0
          0.0052 -0.00195 0.0
          0.0039 -0.00195 0.0
          0.0026 -0.00195 0.0
          0.0013 -0.00195 0.0
          0 -0.00195 0.0
          0.039 -0.00325 0.0
          0.0377 -0.00325 0.0
          0.0364 -0.00325 0.0
          0.0351 -0.00325 0.0
          0.0338 -0.00325 0.0
          0.0325 -0.00325 0.0
          0.0312 -0.00325 0.0
          0.0299 -0.00325 0.0
          0.0286 -0.00325 0.0
          0.0273 -0.00325 0.0
          0.026 -0.00325 0.0
          0.0247 -0.00325 0.0
          0.0234 -0.00325 0.0
          0.0221 -0.00325 0.0
          0.0208 -0.00325 0.0
          0.0195 -0.00325 0.0
          0.0182 -0.00325 0.0
          0.0169 -0.00325 0.0
          0.0156 -0.00325 0.0
          0.0143 -0.00325 0.0
          0.013 -0.00325 0.0
          0.0117 -0.00325 0.0
          0.0104 -0.00325 0.0
          0.0091 -0.00325 0.0
          0.0078 -0.00325 0.0
          0.0065 -0.00325 0.0
          0.0052 -0.00325 0.0
          0.0039 -0.00325 0.0
          0.0026 -0.00325 0.0
          0.0013 -0.00325 0.0
          0 -0.00325 0.0
          0.039 -0.00455 0.0
          0.0377 -0.00455 0.0
          0.0364 -0.00455 0.0
          0.0351 -0.00455 0.0
          0.0338 -0.00455 0.0
          0.0325 -0.00455 0.0
          0.0312 -0.00455 0.0
          0.0299 -0.00455 0.0
          0.0286 -0.00455 0.0
          0.0273 -0.00455 0.0
          0.026 -0.00455 0.0
          0.0247 -0.00455 0.0
          0.0234 -0.00455 0.0
          0.0221 -0.00455 0.0
          0.0208 -0.00455 0.0
          0.0195 -0.00455 0.0
          0.0182 -0.00455 0.0
          0.0169 -0.00455 0.0
          0.0156 -0.00455 0.0
          0.0143 -0.00455 0.0
          0.013 -0.00455 0.0
          0.0117 -0.00455 0.0
          0.0104 -0.00455 0.0
          0.0091 -0.00455 0.0
          0.0078 -0.00455 0.0
          0.0065 -0.00455 0.0
          0.0052 -0.00455 0.0
          0.0039 -0.00455 0.0
          0.0026 -0.00455 0.0
          0.0013 -0.00455 0.0
          0 -0.00455 0.0
          0.039 -0.00585 0.0
          0.0377 -0.00585 0.0
          0.0364 -0.00585 0.0
          0.0351 -0.00585 0.0
          0.0338 -0.00585 0.0
          0.0325 -0.00585 0.0
          0.0312 -0.00585 0.0
          0.0299 -0.00585 0.0
          0.0286 -0.00585 0.0
          0.0273 -0.00585 0.0
          0.026 -0.00585 0.0
          0.0247 -0.00585 0.0
          0.0234 -0.00585 0.0
          0.0221 -0.00585 0.0
          0.0208 -0.00585 0.0
          0.0195 -0.00585 0.0
          0.0182 -0.00585 0.0
          0.0169 -0.00585 0.0
          0.0156 -0.00585 0.0
          0.0143 -0.00585 0.0
          0.013 -0.00585 0.0
          0.0117 -0.00585 0.0
          0.0104 -0.00585 0.0
          0.0091 -0.00585 0.0
          0.0078 -0.00585 0.0
          0.0065 -0.00585 0.0
          0.0052 -0.00585 0.0
          0.0039 -0.00585 0.0
          0.0026 -0.00585 0.0
          0.0013 -0.00585 0.0
          0 -0.00585 0.0
          0.039 -0.00715 0.0
          0.0377 -0.00715 0.0
          0.0364 -0.00715 0.0
          0.0351 -0.00715 0.0
          0.0338 -0.00715 0.0
          0.0325 -0.00715 0.0
          0.0312 -0.00715 0.0
          0.0299 -0.00715 0.0
          0.0286 -0.00715 0.0
          0.0273 -0.00715 0.0
          0.026 -0.00715 0.0
          0.0247 -0.00715 0.0
          0.0234 -0.00715 0.0
          0.0221 -0.00715 0.0
          0.0208 -0.00715 0.0
          0.0195 -0.00715 0.0
          0.0182 -0.00715 0.0
          0.0169 -0.00715 0.0
          0.0156 -0.00715 0.0
          0.0143 -0.00715 0.0
          0.013 -0.00715 0.0
          0.0117 -0.00715 0.0
          0.0104 -0.00715 0.0
          0.0091 -0.00715 0.0
          0.0078 -0.00715 0.0
          0.0065 -0.00715 0.0
          0.0052 -0.00715 0.0
          0.0039 -0.00715 0.0
          0.0026 -0.00715 0.0
          0.0013 -0.00715 0.0
          0 -0.00715 0.0
          0.039 -0.00845 0.0
          0.0377 -0.00845 0.0
          0.0364 -0.00845 0.0
          0.0351 -0.00845 0.0
          0.0338 -0.00845 0.0
          0.0325 -0.00845 0.0
          0.0312 -0.00845 0.0
          0.0299 -0.00845 0.0
          0.0286 -0.00845 0.0
          0.0273 -0.00845 0.0
          0.026 -0.00845 0.0
          0.0247 -0.00845 0.0
          0.0234 -0.00845 0.0
          0.0221 -0.00845 0.0
          0.0208 -0.00845 0.0
          0.0195 -0.00845 0.0
          0.0182 -0.00845 0.0
          0.0169 -0.00845 0.0
          0.0156 -0.00845 0.0
          0.0143 -0.00845 0.0
          0.013 -0.00845 0.0
          0.0117 -0.00845 0.0
          0.0104 -0.00845 0.0
          0.0091 -0.00845 0.0
          0.0078 -0.00845 0.0
          0.0065 -0.00845 0.0
          0.0052 -0.00845 0.0
          0.0039 -0.00845 0.0
          0.0026 -0.00845 0.0
          0.0013 -0.00845 0.0
          0 -0.00845 0.0
          0.039 -0.00975 0.0
          0.0377 -0.00975 0.0
          0.0364 -0.00975 0.0
          0.0351 -0.00975 0.0
          0.0338 -0.00975 0.0
          0.0325 -0.00975 0.0
          0.0312 -0.00975 0.0
          0.0299 -0.00975 0.0
          0.0286 -0.00975 0.0
          0.0273 -0.00975 0.0
          0.026 -0.00975 0.0
          0.0247 -0.00975 0.0
          0.0234 -0.00975 0.0
          0.0221 -0.00975 0.0
          0.0208 -0.00975 0.0
          0.0195 -0.00975 0.0
          0.0182 -0.00975 0.0
          0.0169 -0.00975 0.0
          0.0156 -0.00975 0.0
          0.0143 -0.00975 0.0
          0.013 -0.00975 0.0
          0.0117 -0.00975 0.0
          0.0104 -0.00975 0.0
          0.0091 -0.00975 0.0
          0.0078 -0.00975 0.0
          0.0065 -0.00975 0.0
          0.0052 -0.00975 0.0
          0.0039 -0.00975 0.0
          0.0026 -0.00975 0.0
          0.0013 -0.00975 0.0
          0 -0.00975 0.0
          0.039 -0.01105 0.0
          0.0377 -0.01105 0.0
          0.0364 -0.01105 0.0
          0.0351 -0.01105 0.0
          0.0338 -0.01105 0.0
          0.0325 -0.01105 0.0
          0.0312 -0.01105 0.0
          0.0299 -0.01105 0.0
          0.0286 -0.01105 0.0
          0.0273 -0.01105 0.0
          0.026 -0.01105 0.0
          0.0247 -0.01105 0.0
          0.0234 -0.01105 0.0
          0.0221 -0.01105 0.0
          0.0208 -0.01105 0.0
          0.0195 -0.01105 0.0
          0.0182 -0.01105 0.0
          0.0169 -0.01105 0.0
          0.0156 -0.01105 0.0
          0.0143 -0.01105 0.0
          0.013 -0.01105 0.0
          0.0117 -0.01105 0.0
          0.0104 -0.01105 0.0
          0.0091 -0.01105 0.0
          0.0078 -0.01105 0.0
          0.0065 -0.01105 0.0
          0.0052 -0.01105 0.0
          0.0039 -0.01105 0.0
          0.0026 -0.01105 0.0
          0.0013 -0.01105 0.0
          0 -0.01105 0.0
          0.039 -0.01235 0.0
          0.0377 -0.01235 0.0
          0.0364 -0.01235 0.0
          0.0351 -0.01235 0.0
          0.0338 -0.01235 0.0
          0.0325 -0.01235 0.0
          0.0312 -0.01235 0.0
          0.0299 -0.01235 0.0
          0.0286 -0.01235 0.0
          0.0273 -0.01235 0.0
          0.026 -0.01235 0.0
          0.0247 -0.01235 0.0
          0.0234 -0.01235 0.0
          0.0221 -0.01235 0.0
          0.0208 -0.01235 0.0
          0.0195 -0.01235 0.0
          0.0182 -0.01235 0.0
          0.0169 -0.01235 0.0
          0.0156 -0.01235 0.0
          0.0143 -0.01235 0.0
          0.013 -0.01235 0.0
          0.0117 -0.01235 0.0
          0.0104 -0.01235 0.0
          0.0091 -0.01235 0.0
          0.0078 -0.01235 0.0
          0.0065 -0.01235 0.0
          0.0052 -0.01235 0.0
          0.0039 -0.01235 0.0
          0.0026 -0.01235 0.0
          0.0013 -0.01235 0.0
          0 -0.01235 0.0
          0.039 -0.01365 0.0
          0.0377 -0.01365 0.0
          0.0364 -0.01365 0.0
          0.0351 -0.01365 0.0
          0.0338 -0.01365 0.0
          0.0325 -0.01365 0.0
          0.0312 -0.01365 0.0
          0.0299 -0.01365 0.0
          0.0286 -0.01365 0.0
          0.0273 -0.01365 0.0
          0.026 -0.01365 0.0
          0.0247 -0.01365 0.0
          0.0234 -0.01365 0.0
          0.0221 -0.01365 0.0
          0.0208 -0.01365 0.0
          0.0195 -0.01365 0.0
          0.0182 -0.01365 0.0
          0.0169 -0.01365 0.0
          0.0156 -0.01365 0.0
          0.0143 -0.01365 0.0
          0.013 -0.01365 0.0
          0.0117 -0.01365 0.0
          0.0104 -0.01365 0.0
          0.0091 -0.01365 0.0
          0.0078 -0.01365 0.0
          0.0065 -0.01365 0.0
          0.0052 -0.01365 0.0
          0.0039 -0.01365 0.0
          0.0026 -0.01365 0.0
          0.0013 -0.01365 0.0
          0 -0.01365 0.0
          0.039 -0.01495 0.0
          0.0377 -0.01495 0.0
          0.0364 -0.01495 0.0
          0.0351 -0.01495 0.0
          0.0338 -0.01495 0.0
          0.0325 -0.01495 0.0
          0.0312 -0.01495 0.0
          0.0299 -0.01495 0.0
          0.0286 -0.01495 0.0
          0.0273 -0.01495 0.0
          0.026 -0.01495 0.0
          0.0247 -0.01495 0.0
          0.0234 -0.01495 0.0
          0.0221 -0.01495 0.0